43
energy=-286.459197 Lattice="11.007200000 0.000000000 0.000000000 -0.000965000 9.532200000 0.000000000 0.000000000 0.000000000 19.986500000" virial="-3.81474 0.03918 -0.25107 0.03918 1.33760 -0.02121 -0.25107 -0.02121 -11.00184" Config_type=scf/run/0001 Properties=species:S:1:pos:R:3:forces:R:3 pbc="T T T"
S	      0.95009      1.55909     11.42528         0.546540      0.008103     -0.500407
S	      3.70173      3.14782     11.42528        -0.389265     -0.001535     -0.085428
S	      0.95020      1.55890      8.24303         0.078364     -0.002475     -0.011664
S	      3.70184      3.14763      8.24303         0.119757      0.000231      0.025330
S	      6.45369      1.55909     11.42528         0.102670     -0.086840     -0.000126
S	      9.20533      3.14782     11.42528         0.322737     -0.001345      0.059184
S	      6.45380      1.55890      8.24303         0.069624     -0.009999      0.114682
S	      9.20544      3.14763      8.24303         0.090752      0.000159      0.120018
S	      0.94977      4.73655     11.42528         0.546527     -0.010455     -0.500224
S	      3.70141      6.32519     11.42528        -0.089377      0.522819     -0.468654
S	      0.94988      4.73636      8.24303         0.078097      0.002468     -0.011968
S	      3.70152      6.32500      8.24303         0.111306     -0.037646     -0.029696
S	      6.45337      4.73655     11.42528         0.102878      0.083602      0.000249
S	      9.20501      6.32519     11.42528         0.475008      0.573285     -0.144107
S	      6.45348      4.73636      8.24303         0.069345      0.009937      0.114369
S	      9.20512      6.32500      8.24303         0.050196     -0.028831      0.081027
S	      0.94945      7.91392     11.42528         0.057073     -0.001219     -1.105862
S	      3.70109      9.50265     11.42528        -0.089670     -0.525680     -0.468684
S	      0.94956      7.91373      8.24303         0.068155      0.000211     -0.069966
S	      3.70120      9.50246      8.24303         0.111035      0.037646     -0.029955
S	      6.45305      7.91392     11.42528        -0.323036     -0.001440     -0.063742
S	      9.20469      9.50265     11.42528         0.474726     -0.575831     -0.144212
S	      6.45316      7.91373      8.24303         0.084007      0.000198      0.080684
S	      9.20480      9.50246      8.24303         0.049935      0.028707      0.080749
Mo	      1.86727      3.14772      9.78779        -0.350934      0.000480      0.795788
Mo	      4.61923      1.55899      9.78779        -0.251485     -0.132239      0.021103
Mo	      7.37087      3.14772      9.78779        -0.247553      0.000417     -0.177570
Mo	     10.12283      1.55899      9.78779        -0.010372     -0.064571      0.036706
Mo	      1.86695      6.32509      9.78779        -0.259061      0.073081      1.082673
Mo	      4.61891      4.73636      9.78779        -0.251009      0.134653      0.021131
Mo	      7.37055      6.32509      9.78779        -0.177031      0.059035     -0.084013
Mo	     10.12251      4.73636      9.78779        -0.009913      0.067052      0.036676
Mo	      1.86663      9.50246      9.78779        -0.258746     -0.070785      1.082584
Mo	      4.61859      7.91382      9.78779        -0.189942      0.000345      0.815061
Mo	      7.37023      9.50246      9.78779        -0.176659     -0.056792     -0.084130
Mo	     10.12219      7.91382      9.78779         0.069460      0.000437      0.819798
Ni	      4.61912      1.55918     12.43600         0.176613      0.154358     -0.277508
Ni	      7.37076      3.14782     12.43600        -0.039799     -0.000582      0.100788
Ni	     10.12272      1.55918     12.43600        -0.384930      0.150467     -0.300733
Ni	      4.61880      4.73655     12.43600         0.177061     -0.152457     -0.277794
Ni	      7.37044      6.32528     12.43600        -0.074605     -0.140611     -0.175367
Ni	     10.12240      4.73655     12.43600        -0.384423     -0.148745     -0.301036
Ni	      7.37012      9.50265     12.43600        -0.074057      0.142382     -0.175757
43
energy=-286.293411 Lattice="11.007200000 0.000000000 0.000000000 -0.000965000 9.532200000 0.000000000 0.000000000 0.000000000 19.986500000" virial="-2.14379 0.28469 -0.53117 0.28469 2.55973 0.07779 -0.53117 0.07779 -8.70478" Config_type=scf/run/0002 Properties=species:S:1:pos:R:3:forces:R:3 pbc="T T T"
S	      0.95344      1.54276     11.42631         0.633186      0.076879     -0.545512
S	      3.68407      3.15097     11.45143        -0.278830     -0.062190     -0.305011
S	      0.93990      1.56330      8.24112         0.300366     -0.094887      0.004286
S	      3.69221      3.15890      8.23690         0.361934     -0.120156     -0.020289
S	      6.44987      1.56721     11.42298         0.254985     -0.095328      0.028341
S	      9.20708      3.15806     11.43540         0.393097     -0.147871     -0.086994
S	      6.44841      1.55832      8.23918         0.192765      0.020271      0.169785
S	      9.19045      3.16097      8.24953         0.258784     -0.189972      0.183158
S	      0.93906      4.73491     11.43260         0.775961     -0.010997     -0.719049
S	      3.68692      6.31130     11.43743         0.028439      0.792633     -0.623025
S	      0.94899      4.74072      8.24355         0.097588     -0.081692      0.117350
S	      3.70498      6.30980      8.25273         0.138012      0.114940     -0.214303
S	      6.44857      4.74734     11.41405         0.133776     -0.255303      0.267569
S	      9.19055      6.31942     11.44943         0.654020      0.881906     -0.507126
S	      6.43796      4.75151      8.25895         0.287857     -0.252238     -0.121911
S	      9.22436      6.33383      8.24412        -0.288847     -0.139760      0.111325
S	      0.95875      7.90395     11.40814        -0.019358      0.083914     -1.006515
S	      3.70946      9.50988     11.41443        -0.215970     -0.665166     -0.483094
S	      0.93562      7.88234      8.24469         0.366791      0.284963     -0.300645
S	      3.71673      9.51560      8.24919         0.000574      0.000462     -0.147155
S	      6.44879      7.91328     11.41908        -0.381958     -0.047938      0.041272
S	      9.21236      9.52342     11.41936         0.277655     -0.930868     -0.170853
S	      6.43724      7.89954      8.24948         0.199341      0.143564      0.005721
S	      9.21818      9.49026      8.25643        -0.236463      0.341843     -0.134117
Mo	      1.89133      3.14254      9.78252        -0.942300      0.039342      1.014659
Mo	      4.63033      1.57587      9.79202        -0.529755     -0.197294     -0.116176
Mo	      7.36892      3.14327      9.79742        -0.325767      0.148265     -0.344380
Mo	     10.13759      1.55152      9.79809        -0.311282      0.377682     -0.180194
Mo	      1.88307      6.32819      9.78612        -0.639856     -0.272643      1.213355
Mo	      4.62355      4.72817      9.78685        -0.583767      0.228120      0.294735
Mo	      7.35876      6.32176      9.79241         0.143231      0.260921     -0.107833
Mo	     10.11256      4.74031      9.79607         0.156332      0.071409     -0.004257
Mo	      1.87292      9.48986      9.77893        -0.352321      0.130002      1.026685
Mo	      4.61008      7.91732      9.78569        -0.088215     -0.174708      0.983187
Mo	      7.35580      9.50029      9.79581         0.093465     -0.032587     -0.381748
Mo	     10.12392      7.92817      9.76560         0.073203     -0.490323      1.629671
Ni	      4.62068      1.55273     12.41034         0.160697      0.231834     -0.011028
Ni	      7.39174      3.13728     12.44119        -0.206213      0.130415      0.073675
Ni	     10.10809      1.55851     12.43267        -0.253737      0.260484     -0.202590
Ni	      4.59903      4.73841     12.42629         0.329363     -0.189678     -0.121454
Ni	      7.37077      6.31850     12.44069        -0.194023     -0.060459     -0.118822
Ni	     10.12488      4.74826     12.43484        -0.418503     -0.227643     -0.138716
Ni	      7.36766      9.51123     12.41738        -0.044255      0.119855     -0.051981
43
energy=-285.974877 Lattice="11.007200000 0.000000000 0.000000000 -0.000965000 9.532200000 0.000000000 0.000000000 0.000000000 19.986500000" virial="-0.25724 0.47027 -0.81396 0.47027 4.29564 0.01632 -0.81396 0.01632 -5.78067" Config_type=scf/run/0003 Properties=species:S:1:pos:R:3:forces:R:3 pbc="T T T"
S	      0.95986      1.52673     11.42526         0.664147      0.137552     -0.541660
S	      3.66495      3.15382     11.47666        -0.167278     -0.134839     -0.486958
S	      0.93105      1.56724      8.23863         0.501684     -0.179105      0.029889
S	      3.68428      3.16961      8.23003         0.578216     -0.228557     -0.058947
S	      6.44722      1.57483     11.42125         0.393579     -0.097941      0.053440
S	      9.21088      3.16761     11.44557         0.429071     -0.270417     -0.231426
S	      6.44393      1.55783      8.23545         0.296895      0.049500      0.224366
S	      9.17671      3.17342      8.25622         0.408278     -0.348084      0.228876
S	      0.93213      4.73328     11.43700         0.929481     -0.005970     -0.867336
S	      3.67246      6.30126     11.44713         0.147285      1.007896     -0.722300
S	      0.94861      4.74470      8.24402         0.112546     -0.158162      0.245453
S	      3.70910      6.29516      8.26083         0.151418      0.264516     -0.368461
S	      6.44431      4.75696     11.40457         0.145123     -0.546494      0.501918
S	      9.17935      6.31793     11.47166         0.779771      1.099616     -0.796252
S	      6.42380      4.76546      8.27362         0.492322     -0.498232     -0.360586
S	      9.24230      6.34201      8.24510        -0.597960     -0.248747      0.124938
S	      0.96804      7.89438     11.38667        -0.101769      0.170307     -0.820214
S	      3.71671      9.51385     11.40176        -0.328403     -0.750521     -0.457098
S	      0.92344      7.85230      8.24434         0.650581      0.548391     -0.505807
S	      3.73228      9.52873      8.25406        -0.112941     -0.039114     -0.232001
S	      6.44265      7.91239     11.41357        -0.418359     -0.088451      0.147618
S	      9.22246      0.00746     11.41310         0.051314     -1.246847     -0.173557
S	      6.42225      7.88603      8.25532         0.298681      0.278553     -0.062051
S	      9.23049      9.47969      8.26855        -0.519619      0.677711     -0.374840
Mo	      1.91388      3.13742      9.77882        -1.461246      0.064417      1.157963
Mo	      4.64058      1.59243      9.79602        -0.777327     -0.276723     -0.297685
Mo	      7.36649      3.13906      9.80642        -0.370097      0.297042     -0.487322
Mo	     10.15189      1.54464      9.80808        -0.572744      0.781244     -0.413119
Mo	      1.89818      6.33086      9.78635        -0.976526     -0.609593      1.229257
Mo	      4.62724      4.72037      9.78640        -0.893608      0.321636      0.543482
Mo	      7.34722      6.31886      9.79680         0.447359      0.458622     -0.110967
Mo	     10.10291      4.74440      9.80435         0.319172      0.080379     -0.055063
Mo	      1.87867      9.47746      9.77168        -0.415462      0.332324      0.885909
Mo	      4.60144      7.92056      9.78511         0.026691     -0.338285      1.059186
Mo	      7.34154      9.49807      9.80316         0.352416     -0.012356     -0.663889
Mo	     10.12582      7.94175      9.74596         0.107516     -0.961613      2.328224
Ni	      4.62259      1.54696     12.38496         0.118176      0.299007      0.286073
Ni	      7.41216      3.12707     12.44689        -0.340814      0.223067      0.066060
Ni	     10.09264      1.55858     12.42901        -0.096560      0.353464     -0.082163
Ni	      4.58006      4.73971     12.41639         0.475539     -0.210368      0.032178
Ni	      7.37049      6.31149     12.44534        -0.302985      0.016005     -0.068125
Ni	     10.12612      4.75930     12.43347        -0.422328     -0.288567      0.013112
Ni	      7.36501      9.52012     12.39895        -0.001239      0.077739      0.079884
43
energy=-285.593676 Lattice="11.007200000 0.000000000 0.000000000 -0.000965000 9.532200000 0.000000000 0.000000000 0.000000000 19.986500000" virial="1.42521 0.57173 -1.00121 0.57173 6.13339 -0.10714 -1.00121 -0.10714 -2.75913" Config_type=scf/run/0004 Properties=species:S:1:pos:R:3:forces:R:3 pbc="T T T"
S	      0.96951      1.51128     11.42216         0.638461      0.191699     -0.497730
S	      3.64486      3.15600     11.50008        -0.053097     -0.211604     -0.621706
S	      0.92460      1.57033      8.23567         0.665389     -0.248680      0.064683
S	      3.67907      3.17923      8.22224         0.743488     -0.316592     -0.074344
S	      6.44641      1.58194     11.42017         0.494230     -0.096282      0.073933
S	      9.21692      3.17591     11.45507         0.427274     -0.356718     -0.360473
S	      6.44086      1.55757      8.23211         0.373938      0.077109      0.275070
S	      9.16493      3.18423      8.26335         0.533208     -0.468355      0.257285
S	      0.92971      4.73168     11.43779         0.988007      0.001881     -0.935211
S	      3.65856      6.29612     11.45391         0.274571      1.144776     -0.755509
S	      0.94879      4.74794      8.24507         0.119908     -0.224381      0.359996
S	      3.71395      6.28178      8.26660         0.145987      0.397592     -0.475244
S	      6.44065      4.76401     11.39795         0.142990     -0.769388      0.692001
S	      9.17201      6.32176     11.49058         0.849416      1.220945     -1.001168
S	      6.41197      4.77707      8.28592         0.660521     -0.706736     -0.566132
S	      9.25745      6.34902      8.24603        -0.858167     -0.343097      0.130744
S	      0.97695      7.88562     11.36174        -0.192880      0.254935     -0.552995
S	      3.72230      9.51415     11.38737        -0.413573     -0.757282     -0.379066
S	      0.91436      7.82487      8.24101         0.884320      0.768710     -0.650830
S	      3.74828      0.00947      8.25723        -0.222006     -0.083037     -0.280144
S	      6.43446      7.91106     11.40925        -0.425957     -0.117902      0.248043
S	      9.23198      0.01762     11.40643        -0.165625     -1.480786     -0.151573
S	      6.40866      7.87385      8.26024         0.376341      0.397050     -0.114651
S	      9.24038      9.47234      8.27827        -0.767454      0.989061     -0.598661
Mo	      1.93410      3.13240      9.77692        -1.880096      0.075165      1.219520
Mo	      4.64957      1.60852      9.79949        -0.980034     -0.375586     -0.493187
Mo	      7.36349      3.13533      9.81457        -0.370479      0.434510     -0.602306
Mo	     10.16532      1.53898      9.81738        -0.784327      1.112945     -0.640139
Mo	      1.91174      6.33258      9.78849        -1.249604     -0.912825      1.115204
Mo	      4.62951      4.71310      9.78684        -1.147627      0.413851      0.738051
Mo	      7.33642      6.31672      9.80096         0.714185      0.626881     -0.098792
Mo	     10.09382      4.74864      9.81251         0.474423      0.093248     -0.115747
Mo	      1.88377      9.46559      9.76580        -0.445731      0.530164      0.671979
Mo	      4.59285      7.92326      9.78615         0.153452     -0.486995      1.034011
Mo	      7.32787      9.49583      9.80938         0.584930      0.002024     -0.913423
Mo	     10.12795      7.95379      9.72995         0.160235     -1.382073      2.853295
Ni	      4.62471      1.54201     12.36069         0.058493      0.345480      0.564045
Ni	      7.43173      3.11746     12.45305        -0.447888      0.283065      0.067299
Ni	     10.07682      1.55963     12.42539         0.063297      0.408360      0.036119
Ni	      4.56231      4.74037     12.40672         0.602265     -0.206719      0.166598
Ni	      7.36930      6.30447     12.45007        -0.382950      0.084021     -0.037776
Ni	     10.12613      4.76955     12.43231        -0.391551     -0.324439      0.128389
Ni	      7.36227      9.52919     12.38111         0.049718      0.016006      0.220541
43
energy=-285.249720 Lattice="11.007200000 0.000000000 0.000000000 -0.000965000 9.532200000 0.000000000 0.000000000 0.000000000 19.986500000" virial="2.54229 0.58471 -1.01800 0.58471 7.69729 -0.18628 -1.01800 -0.18628 -0.12246" Config_type=scf/run/0005 Properties=species:S:1:pos:R:3:forces:R:3 pbc="T T T"
S	      0.98227      1.49667     11.41720         0.558203      0.240824     -0.425087
S	      3.62433      3.15715     11.52104         0.068124     -0.280343     -0.705993
S	      0.92132      1.57222      8.23241         0.778162     -0.299281      0.109173
S	      3.67736      3.18736      8.21345         0.837456     -0.379012     -0.050122
S	      6.44793      1.58858     11.41983         0.535770     -0.090925      0.087479
S	      9.22520      3.18254     11.46327         0.385897     -0.399388     -0.462792
S	      6.43957      1.55766      8.22940         0.418143      0.102106      0.318752
S	      9.15569      3.19283      8.27104         0.630373     -0.550028      0.270913
S	      0.93209      4.73013     11.43463         0.945325      0.009179     -0.919599
S	      3.64582      6.29655     11.45760         0.414492      1.184674     -0.717453
S	      0.94959      4.75012      8.24722         0.117018     -0.279401      0.451673
S	      3.71949      6.27030      8.26954         0.118976      0.501759     -0.521167
S	      6.43755      4.76741     11.39511         0.135185     -0.909380      0.826869
S	      9.16886      6.33153     11.50519         0.859936      1.242715     -1.116788
S	      6.40325      4.78533      8.29488         0.771461     -0.858761     -0.700957
S	      9.26856      6.35441      8.24696        -1.054747     -0.409452      0.140458
S	      0.98501      7.87806     11.33460        -0.292587      0.332871     -0.219146
S	      3.72581      9.51073     11.37160        -0.462227     -0.671134     -0.243599
S	      0.90947      7.80111      8.23401         1.036761      0.934575     -0.704907
S	      3.76229      0.02202      8.25846        -0.319602     -0.133102     -0.290822
S	      6.42416      7.90913     11.40660        -0.400600     -0.132616      0.334750
S	      9.24084      0.02061     11.39946        -0.337246     -1.588977     -0.105928
S	      6.39682      7.86355      8.26399         0.429224      0.491171     -0.144798
S	      9.24668      9.46968      8.28452        -0.944409      1.216621     -0.750567
Mo	      1.95131      3.12751      9.77691        -2.182059      0.073193      1.194056
Mo	      4.65698      1.62401      9.80211        -1.127401     -0.494927     -0.677838
Mo	      7.35994      3.13229      9.82169        -0.321782      0.549943     -0.687825
Mo	     10.17753      1.53508      9.82561        -0.943235      1.345674     -0.840683
Mo	      1.92330      6.33285      9.79237        -1.447873     -1.157793      0.867355
Mo	      4.62995      4.70651      9.78847        -1.315508      0.504501      0.851996
Mo	      7.32678      6.31560      9.80492         0.925463      0.740835     -0.077850
Mo	     10.08554      4.75306      9.82046         0.618835      0.109558     -0.185111
Mo	      1.88817      9.45456      9.76095        -0.444788      0.717464      0.400294
Mo	      4.58451      7.92519      9.78879         0.291163     -0.617801      0.905470
Mo	      7.31515      9.49359      9.81408         0.780495      0.008775     -1.116573
Mo	     10.13038      7.96364      9.71839         0.210282     -1.710234      3.139128
Ni	      4.62691      1.53801     12.33830        -0.012878      0.363267      0.789809
Ni	      7.45021      3.10861     12.45967        -0.517554      0.317290      0.067774
Ni	     10.06111      1.56179     12.42212         0.206385      0.404473      0.129876
Ni	      4.54621      4.74043     12.39768         0.696261     -0.175071      0.267883
Ni	      7.36699      6.29762     12.45494        -0.417428      0.140777     -0.037923
Ni	     10.12499      4.77891     12.43170        -0.330725     -0.329732      0.189800
Ni	      7.36052      0.00606     12.36423         0.103261     -0.064887      0.360018
43
energy=-285.019030 Lattice="11.007200000 0.000000000 0.000000000 -0.000965000 9.532200000 0.000000000 0.000000000 0.000000000 19.986500000" virial="2.96344 0.51760 -0.83096 0.51760 8.81958 -0.14159 -0.83096 -0.14159 1.81328" Config_type=scf/run/0006 Properties=species:S:1:pos:R:3:forces:R:3 pbc="T T T"
S	      0.99774      1.48313     11.41071         0.428208      0.285004     -0.335357
S	      3.60390      3.15692     11.53912         0.199539     -0.326971     -0.742412
S	      0.92174      1.57268      8.22905         0.832027     -0.328575      0.161303
S	      3.67960      3.19371      8.20375         0.849932     -0.413267      0.022563
S	      6.45199      1.59477     11.42027         0.504891     -0.083090      0.089652
S	      9.23554      3.18732     11.46968         0.306996     -0.395556     -0.531444
S	      6.44025      1.55824      8.22750         0.426892      0.123406      0.351804
S	      9.14945      3.19883      8.27937         0.698103     -0.594961      0.271933
S	      0.93907      4.72867     11.42759         0.809670      0.013334     -0.824273
S	      3.63490      6.30278     11.45838         0.562153      1.119533     -0.612590
S	      0.95097      4.75098      8.25093         0.102241     -0.323338      0.511953
S	      3.72560      6.26120      8.26943         0.071726      0.567157     -0.501108
S	      6.43498      4.76647     11.39669         0.128007     -0.957727      0.896447
S	      9.16996      6.34736     11.51491         0.811846      1.164644     -1.144666
S	      6.39818      4.78952      8.29988         0.811129     -0.940653     -0.736643
S	      9.27470      6.35788      8.24792        -1.178509     -0.437822      0.162507
S	      0.99176      7.87209     11.30681        -0.393592      0.396689      0.155207
S	      3.72702      9.50398     11.35507        -0.472489     -0.493220     -0.055625
S	      0.90949      7.78179      8.22307         1.089152      1.040698     -0.653195
S	      3.77480      0.03394      8.25770        -0.399673     -0.189295     -0.268660
S	      6.41188      7.90652     11.40604        -0.339588     -0.129893      0.399842
S	      9.24823      0.01587     11.39238        -0.439407     -1.540002     -0.040809
S	      6.38699      7.85557      8.26644         0.457331      0.554487     -0.149327
S	      9.24855      9.47279      8.28660        -1.021323      1.308112     -0.783947
Mo	      1.96505      3.12274      9.77876        -2.359203      0.061987      1.081243
Mo	      4.66257      1.63872      9.80360        -1.213911     -0.633158     -0.829072
Mo	      7.35591      3.13013      9.82764        -0.223703      0.634669     -0.743446
Mo	     10.18825      1.53330      9.83244        -1.051618      1.460981     -0.996160
Mo	      1.93255      6.33128      9.79760        -1.566390     -1.321026      0.501994
Mo	      4.62828      4.70075      9.79147        -1.375250      0.592945      0.868720
Mo	      7.31862      6.31568      9.80871         1.068185      0.781415     -0.054355
Mo	     10.07828      4.75768      9.82808         0.749613      0.129029     -0.260271
Mo	      1.89188      9.44465      9.75670        -0.417428      0.887245      0.093529
Mo	      4.57663      7.92615      9.79283         0.438161     -0.726039      0.681331
Mo	      7.30366      9.49137      9.81694         0.933937      0.007841     -1.261258
Mo	     10.13321      7.97076      9.71175         0.233188     -1.908062      3.139536
Ni	      4.62902      1.53498     12.31834        -0.087009      0.348311      0.955244
Ni	      7.46742      3.10063     12.46670        -0.546257      0.336482      0.060079
Ni	     10.04597      1.56503     12.41949         0.318631      0.325726      0.183029
Ni	      4.53207      4.73997     12.38959         0.748260     -0.117727      0.330266
Ni	      7.36348      6.29109     12.45996        -0.397880      0.186483     -0.073837
Ni	     10.12287      4.78739     12.43182        -0.251814     -0.302494      0.190494
Ni	      7.35795      0.01492     12.34868         0.155226     -0.163303      0.489775
43
energy=-284.929005 Lattice="11.007200000 0.000000000 0.000000000 -0.000965000 9.532200000 0.000000000 0.000000000 0.000000000 19.986500000" virial="2.56904 0.38074 -0.44949 0.38074 9.31285 0.04810 -0.44949 0.04810 2.76673" Config_type=scf/run/0007 Properties=species:S:1:pos:R:3:forces:R:3 pbc="T T T"
S	      1.01533      1.47085     11.40311         0.255462      0.323576     -0.237317
S	      3.58421      3.15509     11.55416         0.341102     -0.340010     -0.737066
S	      0.92613      1.57156      8.22584         0.824530     -0.335783      0.217257
S	      3.68586      3.19810      8.19348         0.782020     -0.418586      0.141635
S	      6.45845      1.60058     11.42150         0.400319     -0.074951      0.078298
S	      9.24757      3.19028     11.47396         0.196259     -0.346735     -0.561747
S	      6.44297      1.55940      8.22658         0.400353      0.139848      0.370893
S	      9.14654      3.20202      8.28838         0.736292     -0.604998      0.261795
S	      0.95002      4.72732     11.41710         0.601069      0.011462     -0.657564
S	      3.62648      6.31450     11.45672         0.701885      0.954835     -0.455237
S	      0.95287      4.75029      8.25649         0.075112     -0.356630      0.534968
S	      3.73208      6.25481      8.26636         0.009002      0.588557     -0.417570
S	      6.43289      4.76095     11.40304         0.124988     -0.914269      0.897884
S	      9.17507      6.36893     11.51962         0.710196      0.988371     -1.092706
S	      6.39694      4.78925      8.30075         0.776702     -0.945114     -0.662202
S	      9.27525      6.35928      8.24904        -1.225495     -0.424188      0.200171
S	      0.99670      7.86799     11.28016        -0.481492      0.437543      0.536829
S	      3.72586      9.49472     11.33865        -0.447587     -0.242209      0.168762
S	      0.91468      7.76739      8.20840         1.041288      1.086530     -0.498025
S	      3.78543      0.04499      8.25504        -0.458036     -0.250319     -0.220525
S	      6.39787      7.90324     11.40790        -0.243256     -0.108781      0.437975
S	      9.25366      0.00363     11.38549        -0.467775     -1.326337      0.037171
S	      6.37931      7.85022      8.26755         0.463327      0.582895     -0.128149
S	      9.24560      9.48212      8.28434        -0.986800      1.240328     -0.680935
Mo	      1.97502      3.11807      9.78231        -2.413011      0.045273      0.887036
Mo	      4.66619      1.65243      9.80371        -1.238555     -0.786949     -0.929228
Mo	      7.35155      3.12897      9.83233        -0.080216      0.683182     -0.769229
Mo	     10.19732      1.53384      9.83765        -1.113145      1.451913     -1.094896
Mo	      1.93929      6.32761      9.80360        -1.604188     -1.379625      0.052392
Mo	      4.62440      4.69594      9.79586        -1.319023      0.677385      0.786166
Mo	      7.31214      6.31704      9.81239         1.137504      0.741060     -0.034560
Mo	     10.07224      4.76253      9.83526         0.864222      0.151156     -0.338059
Mo	      1.89491      9.43614      9.75254        -0.370546      1.028911     -0.222327
Mo	      4.56943      7.92595      9.79792         0.591022     -0.804231      0.376849
Mo	      7.29364      9.48916      9.81771         1.043870      0.001735     -1.337513
Mo	     10.13645      7.97484      9.71001         0.211362     -1.956841      2.846625
Ni	      4.63085      1.53287     12.30119        -0.149244      0.304258      1.054775
Ni	      7.48323      3.09357     12.47414        -0.539464      0.347839      0.038774
Ni	     10.03177      1.56914     12.41767         0.391792      0.174447      0.191575
Ni	      4.52009      4.73917     12.38266         0.753497     -0.044582      0.354024
Ni	      7.35881      6.28500     12.46501        -0.327683      0.222654     -0.142433
Ni	     10.11996      4.79507     12.43271        -0.171572     -0.245949      0.136069
Ni	      7.35567      0.02331     12.33478         0.203914     -0.276673      0.609366
43
energy=-284.955172 Lattice="11.007200000 0.000000000 0.000000000 -0.000965000 9.532200000 0.000000000 0.000000000 0.000000000 19.986500000" virial="1.57103 0.18427 0.08297 0.18427 9.31168 0.33458 0.08297 0.33458 2.83975" Config_type=scf/run/0008 Properties=species:S:1:pos:R:3:forces:R:3 pbc="T T T"
S	      1.03421      1.46001     11.39486         0.049275      0.354786     -0.136920
S	      3.56590      3.15157     11.56622         0.488188     -0.314049     -0.699909
S	      0.93447      1.56881      8.22303         0.757973     -0.321171      0.269248
S	      3.69585      3.20053      8.18318         0.644730     -0.395880      0.292767
S	      6.46685      1.60607     11.42345         0.234217     -0.070071      0.051877
S	      9.26079      3.19168     11.47593         0.062709     -0.259290     -0.553351
S	      6.44761      1.56122      8.22674         0.340989      0.150262      0.372618
S	      9.14716      3.20234      8.29802         0.744910     -0.581164      0.239459
S	      0.96396      4.72607     11.40394         0.345195      0.001095     -0.430933
S	      3.62124      6.33098     11.45338         0.807930      0.707558     -0.268040
S	      0.95516      4.74788      8.26403         0.035980     -0.379639      0.515579
S	      3.73862      6.25123      8.26070        -0.062364      0.565441     -0.282051
S	      6.43129      4.75101     11.41421         0.126171     -0.788477      0.834890
S	      9.18372      6.39544     11.51955         0.564779      0.721368     -0.973741