 running on   48 total cores
 distrk:  each k-point on   48 cores,    1 groups
 distr:  one band on   12 cores,    4 groups
 using from now: INCAR     
 vasp.5.4.4.18Apr17-6-g9f103f2a35 (build Aug 21 2024 10:56:42) complex          
  
 POSCAR found type information on POSCAR  S  Mo Ni
 POSCAR found :  3 types and      43 ions
 scaLAPACK is switched off

 ----------------------------------------------------------------------------- 
|                                                                             |
|  ADVICE TO THIS USER RUNNING 'VASP/VAMP'   (HEAR YOUR MASTER'S VOICE ...):  |
|                                                                             |
|      You have a (more or less) 'large supercell' and for larger cells       |
|      it might be more efficient to use real space projection opertators     |
|      So try LREAL= Auto  in the INCAR   file.                               |
|      Mind:          For very  accurate calculation you might also keep the  |
|      reciprocal projection scheme          (i.e. LREAL=.FALSE.)             |
|                                                                             |
 ----------------------------------------------------------------------------- 

 LDA part: xc-table for Pade appr. of Perdew
 POSCAR, INCAR and KPOINTS ok, starting setup
 FFT: planning ...
 WAVECAR not read
 entering main loop
       N       E                     dE             d eps       ncg     rms          rms(c)
DAV:   1     0.358893413050E+04    0.35889E+04   -0.17117E+05  1240   0.115E+03
DAV:   2     0.736210615420E+02   -0.35153E+04   -0.33813E+04  1208   0.334E+02
DAV:   3    -0.265975733916E+03   -0.33960E+03   -0.33285E+03  1192   0.111E+02
DAV:   4    -0.279744680863E+03   -0.13769E+02   -0.13498E+02  1216   0.231E+01
DAV:   5    -0.280280449931E+03   -0.53577E+00   -0.53312E+00  1328   0.433E+00    0.909E+01
DAV:   6    -0.286934650266E+03   -0.66542E+01   -0.97815E-01  1344   0.335E+00    0.838E+01
DAV:   7    -0.283337213542E+03    0.35974E+01   -0.16735E+00  1264   0.378E+00    0.770E+01
DAV:   8    -0.275615572736E+03    0.77216E+01   -0.42317E+01  1304   0.191E+01    0.433E+01
DAV:   9    -0.276483635907E+03   -0.86806E+00   -0.86388E+00  1408   0.104E+01    0.345E+01
DAV:  10    -0.276078728694E+03    0.40491E+00   -0.23773E+00  1424   0.779E+00    0.288E+01
DAV:  11    -0.275004721305E+03    0.10740E+01   -0.26757E+00  1440   0.847E+00    0.226E+01
DAV:  12    -0.273314033796E+03    0.16907E+01   -0.41628E+00  1368   0.714E+00    0.159E+01
DAV:  13    -0.272998981022E+03    0.31505E+00   -0.36583E+00  1416   0.949E+00    0.917E+00
DAV:  14    -0.273181761978E+03   -0.18278E+00   -0.15259E+00  1480   0.501E+00    0.601E+00
DAV:  15    -0.272854558538E+03    0.32720E+00   -0.29891E-01  1348   0.158E+00    0.552E+00
DAV:  16    -0.272378254873E+03    0.47630E+00   -0.51425E-01  1320   0.183E+00    0.437E+00
DAV:  17    -0.272058933679E+03    0.31932E+00   -0.10879E+00  1296   0.227E+00    0.340E+00
DAV:  18    -0.272055279706E+03    0.36540E-02   -0.30030E-01  1336   0.138E+00    0.285E+00
DAV:  19    -0.271985606376E+03    0.69673E-01   -0.62280E-02  1304   0.651E-01    0.263E+00
DAV:  20    -0.271949275537E+03    0.36331E-01   -0.49451E-02  1408   0.840E-01    0.215E+00
DAV:  21    -0.271951798641E+03   -0.25231E-02   -0.15596E-01  1232   0.882E-01    0.169E+00
DAV:  22    -0.271947492684E+03    0.43060E-02   -0.53946E-02  1392   0.980E-01    0.133E+00
DAV:  23    -0.271937917154E+03    0.95755E-02   -0.19158E-02  1360   0.520E-01    0.112E+00
DAV:  24    -0.271934958566E+03    0.29586E-02   -0.76169E-03  1376   0.288E-01    0.984E-01
DAV:  25    -0.271935813683E+03   -0.85512E-03   -0.11253E-02  1352   0.435E-01    0.719E-01
DAV:  26    -0.271936854280E+03   -0.10406E-02   -0.12472E-02  1432   0.447E-01    0.520E-01
DAV:  27    -0.271936545765E+03    0.30852E-03   -0.39149E-03  1176   0.202E-01    0.464E-01
DAV:  28    -0.271936959581E+03   -0.41382E-03   -0.47154E-04  1240   0.879E-02    0.430E-01
DAV:  29    -0.271936265776E+03    0.69381E-03   -0.11573E-03  1384   0.202E-01    0.359E-01
DAV:  30    -0.271935597300E+03    0.66848E-03   -0.22972E-03  1328   0.136E-01    0.280E-01
DAV:  31    -0.271934757504E+03    0.83980E-03   -0.32941E-03  1344   0.183E-01    0.193E-01
DAV:  32    -0.271934824191E+03   -0.66688E-04   -0.10371E-03  1344   0.894E-02    0.156E-01
DAV:  33    -0.271934861306E+03   -0.37114E-04   -0.13910E-04  1408   0.673E-02    0.125E-01
DAV:  34    -0.271934753101E+03    0.10820E-03   -0.14849E-04  1352   0.634E-02    0.105E-01
DAV:  35    -0.271934660318E+03    0.92783E-04   -0.21033E-04  1360   0.509E-02    0.922E-02
DAV:  36    -0.271934615985E+03    0.44334E-04   -0.25478E-04  1344   0.636E-02    0.593E-02
DAV:  37    -0.271934627439E+03   -0.11454E-04   -0.61308E-05  1144   0.217E-02    0.556E-02
DAV:  38    -0.271934636023E+03   -0.85844E-05   -0.12636E-05  1192   0.148E-02    0.495E-02
DAV:  39    -0.271934632539E+03    0.34840E-05   -0.44586E-06   928   0.128E-02    0.448E-02
DAV:  40    -0.271934631214E+03    0.13259E-05   -0.50624E-06  1052   0.117E-02    0.404E-02
DAV:  41    -0.271934626100E+03    0.51133E-05   -0.15328E-05  1256   0.125E-02    0.331E-02
DAV:  42    -0.271934619096E+03    0.70042E-05   -0.13092E-05  1288   0.116E-02    0.263E-02
DAV:  43    -0.271934619161E+03   -0.65193E-07   -0.51053E-06  1040   0.824E-03
   1 F= -.28645920E+03 E0= -.28645920E+03  d E =-.268567E-86  mag=    -0.0001
