 vasp.5.4.4.18Apr17-6-g9f103f2a35 (build Aug 21 2024 10:56:42) complex          
  
 executed on             LinuxIFC date 2026.06.14  17:11:28
 running on   48 total cores
 distrk:  each k-point on   48 cores,    1 groups
 distr:  one band on NCORES_PER_BAND=  12 cores,    4 groups


--------------------------------------------------------------------------------------------------------


 INCAR:
 POTCAR:    PAW_PBE S 06Sep2000                   
 POTCAR:    PAW_PBE Mo_sv 02Feb2006               
 POTCAR:    PAW_PBE Ni 02Aug2007                  
 POTCAR:    PAW_PBE S 06Sep2000                   
   VRHFIN =S : s2p4                                                             
   LEXCH  = PE                                                                  
   EATOM  =   276.8230 eV,   20.3459 Ry                                         
                                                                                
   TITEL  = PAW_PBE S 06Sep2000                                                 
   LULTRA =        F    use ultrasoft PP ?                                      
   IUNSCR =        1    unscreen: 0-lin 1-nonlin 2-no                           
   RPACOR =    1.500    partial core radius                                     
   POMASS =   32.066; ZVAL   =    6.000    mass and valenz                      
   RCORE  =    1.900    outmost cutoff radius                                   
   RWIGS  =    2.200; RWIGS  =    1.164    wigner-seitz radius (au A)           
   ENMAX  =  258.689; ENMIN  =  194.016 eV                                      
   ICORE  =        2    local potential                                         
   LCOR   =        T    correct aug charges                                     
   LPAW   =        T    paw PP                                                  
   EAUG   =  335.092                                                            
   DEXC   =    0.000                                                            
   RMAX   =    1.942    core radius for proj-oper                               
   RAUG   =    1.300    factor for augmentation sphere                          
   RDEP   =    1.954    radius for radial grids                                 
   RDEPT  =    1.744    core radius for aug-charge                              
                                                                                
   Atomic configuration                                                         
    6 entries                                                                   
     n  l   j            E        occ.                                          
     1  0  0.50     -2405.8406   2.0000                                         
     2  0  0.50      -211.7007   2.0000                                         
     2  1  1.50      -156.4958   6.0000                                         
     3  0  0.50       -17.2562   2.0000                                         
     3  1  0.50        -7.0085   4.0000                                         
     3  2  1.50        -6.8029   0.0000                                         
   Description                                                                  
     l       E           TYP  RCUT    TYP  RCUT                                 
     0    -17.2561641     23  1.900                                             
     0    -15.8743224     23  1.900                                             
     1     -7.0085400     23  1.900                                             
     1     -2.7779785     23  1.900                                             
     2     -6.8029130     23  1.900                                             
  local pseudopotential read in
  partial core-charges read in
  partial kinetic energy density read in
  atomic valenz-charges read in
  non local Contribution for L=           0  read in
    real space projection operators read in
  non local Contribution for L=           0  read in
    real space projection operators read in
  non local Contribution for L=           1  read in
    real space projection operators read in
  non local Contribution for L=           1  read in
    real space projection operators read in
    PAW grid and wavefunctions read in
 
   number of l-projection  operators is LMAX  =           4
   number of lm-projection operators is LMMAX =           8
 
 POTCAR:    PAW_PBE Mo_sv 02Feb2006               
   VRHFIN =Mo: 4p5s4d                                                           
   LEXCH  = PE                                                                  
   EATOM  =  1862.2866 eV,  136.8742 Ry                                         
                                                                                
   TITEL  = PAW_PBE Mo_sv 02Feb2006                                             
   LULTRA =        F    use ultrasoft PP ?                                      
   IUNSCR =        1    unscreen: 0-lin 1-nonlin 2-no                           
   RPACOR =    2.200    partial core radius                                     
   POMASS =   95.940; ZVAL   =   14.000    mass and valenz                      
   RCORE  =    2.500    outmost cutoff radius                                   
   RWIGS  =    2.750; RWIGS  =    1.455    wigner-seitz radius (au A)           
   ENMAX  =  242.676; ENMIN  =  182.007 eV                                      
   ICORE  =        3    local potential                                         
   LCOR   =        T    correct aug charges                                     
   LPAW   =        T    paw PP                                                  
   EAUG   =  446.014                                                            
   DEXC   =    0.000                                                            
   RMAX   =    2.563    core radius for proj-oper                               
   RAUG   =    1.300    factor for augmentation sphere                          
   RDEP   =    2.641    radius for radial grids                                 
   RDEPT  =    2.031    core radius for aug-charge                              
                                                                                
   Atomic configuration                                                         
   11 entries                                                                   
     n  l   j            E        occ.                                          
     1  0  0.50    -19819.0341   2.0000                                         
     2  0  0.50     -2799.0127   2.0000                                         
     2  1  1.50     -2502.0276   6.0000                                         
     3  0  0.50      -476.4449   2.0000                                         
     3  1  1.50      -379.1496   6.0000                                         
     3  2  2.50      -220.9367  10.0000                                         
     4  0  0.50       -64.3378   2.0000                                         
     5  0  0.50        -4.0862   1.0000                                         
     4  1  1.50       -38.4773   6.0000                                         
     4  2  2.50        -3.7535   5.0000                                         
     4  3  2.50        -1.3606   0.0000                                         
   Description                                                                  
     l       E           TYP  RCUT    TYP  RCUT                                 
     0    -64.3377829     23  2.100                                             
     0     -4.0861640     23  2.400                                             
     1    -38.4772993     23  2.100                                             
     1     13.6058260     23  2.100                                             
     2     -3.7534941     23  2.400                                             
     2     -5.1140767     23  2.400                                             
     3     -4.0817478     23  2.500                                             
  local pseudopotential read in
  partial core-charges read in
  partial kinetic energy density read in
  atomic valenz-charges read in
  non local Contribution for L=           0  read in
    real space projection operators read in
  non local Contribution for L=           0  read in
    real space projection operators read in
  non local Contribution for L=           1  read in
    real space projection operators read in
  non local Contribution for L=           1  read in
    real space projection operators read in
  non local Contribution for L=           2  read in
    real space projection operators read in
  non local Contribution for L=           2  read in
    real space projection operators read in
    PAW grid and wavefunctions read in
 
   number of l-projection  operators is LMAX  =           6
   number of lm-projection operators is LMMAX =          18
 
 POTCAR:    PAW_PBE Ni 02Aug2007                  
   VRHFIN =Ni:                                                                  
   LEXCH  = PE                                                                  
   EATOM  =  1077.6739 eV,   79.2068 Ry                                         
                                                                                
   TITEL  = PAW_PBE Ni 02Aug2007                                                
   LULTRA =        F    use ultrasoft PP ?                                      
   IUNSCR =        1    unscreen: 0-lin 1-nonlin 2-no                           
   RPACOR =    2.000    partial core radius                                     
   POMASS =   58.690; ZVAL   =   10.000    mass and valenz                      
   RCORE  =    2.300    outmost cutoff radius                                   
   RWIGS  =    2.430; RWIGS  =    1.286    wigner-seitz radius (au A)           
   ENMAX  =  269.532; ENMIN  =  202.149 eV                                      
   RCLOC  =    1.201    cutoff for local pot                                    
   LCOR   =        T    correct aug charges                                     
   LPAW   =        T    paw PP                                                  
   EAUG   =  544.565                                                            
   DEXC   =    0.000                                                            
   RMAX   =    2.357    core radius for proj-oper                               
   RAUG   =    1.300    factor for augmentation sphere                          
   RDEP   =    2.390    radius for radial grids                                 
   RDEPT  =    1.838    core radius for aug-charge                              
                                                                                
   Atomic configuration                                                         
    9 entries                                                                   
     n  l   j            E        occ.                                          
     1  0  0.50     -8206.4253   2.0000                                         
     2  0  0.50      -976.1748   2.0000                                         
     2  1  1.50      -839.0571   6.0000                                         
     3  0  0.50      -105.9991   2.0000                                         
     3  1  1.50       -66.4603   6.0000                                         
     3  2  2.50        -4.6458   9.0000                                         
     4  0  0.50        -4.4926   1.0000                                         
     4  1  1.50        -4.0817   0.0000                                         
     4  3  2.50        -1.3606   0.0000                                         
   Description                                                                  
     l       E           TYP  RCUT    TYP  RCUT                                 
     2     -4.6457903     23  2.300                                             
     2     -6.0063729     23  2.300                                             
     0     -4.4925590     23  2.300                                             
     0      5.0102601     23  2.300                                             
     1     -2.7211652     23  2.300                                             
     1     16.5183231     23  2.300                                             
  local pseudopotential read in
  partial core-charges read in
  partial kinetic energy density read in
  atomic valenz-charges read in
  non local Contribution for L=           2  read in
    real space projection operators read in
  non local Contribution for L=           2  read in
    real space projection operators read in
  non local Contribution for L=           0  read in
    real space projection operators read in
  non local Contribution for L=           0  read in
    real space projection operators read in
  non local Contribution for L=           1  read in
    real space projection operators read in
  non local Contribution for L=           1  read in
    real space projection operators read in
    PAW grid and wavefunctions read in
 
   number of l-projection  operators is LMAX  =           6
   number of lm-projection operators is LMMAX =          18
 

 ----------------------------------------------------------------------------- 
|                                                                             |
|  ADVICE TO THIS USER RUNNING 'VASP/VAMP'   (HEAR YOUR MASTER'S VOICE ...):  |
|                                                                             |
|      You have a (more or less) 'large supercell' and for larger cells       |
|      it might be more efficient to use real space projection opertators     |
|      So try LREAL= Auto  in the INCAR   file.                               |
|      Mind:          For very  accurate calculation you might also keep the  |
|      reciprocal projection scheme          (i.e. LREAL=.FALSE.)             |
|                                                                             |
 ----------------------------------------------------------------------------- 

  PAW_PBE S 06Sep2000                   :
 energy of atom  1       EATOM= -276.8230
 kinetic energy error for atom=    0.0033 (will be added to EATOM!!)
  PAW_PBE Mo_sv 02Feb2006               :
 energy of atom  2       EATOM=-1862.2866
 kinetic energy error for atom=    0.0088 (will be added to EATOM!!)
  PAW_PBE Ni 02Aug2007                  :
 energy of atom  3       EATOM=-1077.6739
 kinetic energy error for atom=    0.0038 (will be added to EATOM!!)
 
 
 POSCAR: unknown system                          
  positions in direct lattice
  No initial velocities read in
 exchange correlation table for  LEXCH =        8
   RHO(1)=    0.500       N(1)  =     2000
   RHO(2)=  100.500       N(2)  =     4000
 


--------------------------------------------------------------------------------------------------------


 ion  position               nearest neighbor table
   1  0.086  0.164  0.572-  39 2.09  25 2.46  28 2.46  33 2.46
   2  0.336  0.330  0.572-  40 2.09  37 2.09  30 2.46  25 2.46  26 2.46
   3  0.086  0.164  0.412-  33 2.40  25 2.40  28 2.40
   4  0.336  0.330  0.412-  30 2.40  26 2.40  25 2.40
   5  0.586  0.164  0.572-  38 2.09  43 2.09  37 2.09  27 2.46  26 2.46  35 2.46
   6  0.836  0.330  0.572-  42 2.09  39 2.09  38 2.09  32 2.46  27 2.46  28 2.46
   7  0.586  0.164  0.412-  35 2.40  27 2.40  26 2.40
   8  0.836  0.330  0.412-  32 2.40  28 2.40  27 2.40
   9  0.086  0.497  0.572-  42 2.09  29 2.46  32 2.46  25 2.46
  10  0.336  0.664  0.572-  40 2.09  34 2.46  29 2.46  30 2.46
  11  0.086  0.497  0.412-  29 2.40  25 2.40  32 2.40
  12  0.336  0.664  0.412-  30 2.40  34 2.40  29 2.40
  13  0.586  0.497  0.572-  41 2.09  40 2.09  38 2.09  31 2.46  30 2.46  27 2.46
  14  0.836  0.664  0.572-  42 2.09  41 2.09  36 2.46  31 2.46  32 2.46
  15  0.586  0.497  0.412-  31 2.40  27 2.40  30 2.40
  16  0.836  0.664  0.412-  32 2.40  36 2.40  31 2.40
  17  0.086  0.830  0.572-  33 2.46  36 2.46  29 2.46
  18  0.336  0.997  0.572-  37 2.09  26 2.46  33 2.46  34 2.46
  19  0.086  0.830  0.412-  33 2.40  29 2.40  36 2.40
  20  0.336  0.997  0.412-  26 2.40  34 2.40  33 2.40
  21  0.586  0.830  0.572-  43 2.09  41 2.09  35 2.46  34 2.46  31 2.46
  22  0.836  0.997  0.572-  39 2.09  43 2.09  28 2.46  35 2.46  36 2.46
  23  0.586  0.830  0.412-  35 2.40  31 2.40  34 2.40
  24  0.836  0.997  0.412-  28 2.40  36 2.40  35 2.40
  25  0.170  0.330  0.490-  11 2.40   3 2.40   4 2.40   1 2.46   2 2.46   9 2.46  30 3.18  28 3.18
                            29 3.18  33 3.18  32 3.18  26 3.18
  26  0.420  0.164  0.490-  20 2.40   4 2.40   7 2.40  18 2.46   5 2.46   2 2.46  37 2.65  33 3.18
                            27 3.18  30 3.18  34 3.18  25 3.18  35 3.18
  27  0.670  0.330  0.490-  15 2.40   7 2.40   8 2.40   5 2.46   6 2.46  13 2.46  38 2.65  32 3.18
                            26 3.18  31 3.18  35 3.18  30 3.18  28 3.18
  28  0.920  0.164  0.490-  24 2.40   8 2.40   3 2.40  22 2.46   1 2.46   6 2.46  39 2.65  35 3.18
                            25 3.18  32 3.18  36 3.18  27 3.18  33 3.18
  29  0.170  0.664  0.490-  11 2.40  19 2.40  12 2.40   9 2.46  10 2.46  17 2.46  34 3.18  32 3.18
                            33 3.18  25 3.18  36 3.18  30 3.18
  30  0.420  0.497  0.490-   4 2.40  12 2.40  15 2.40   2 2.46  13 2.46  10 2.46  40 2.65  25 3.18
                            31 3.18  26 3.18  34 3.18  27 3.18  29 3.18
  31  0.670  0.664  0.490-  15 2.40  23 2.40  16 2.40  13 2.46  14 2.46  21 2.46  41 2.65  36 3.18
                            30 3.18  35 3.18  27 3.18  34 3.18  32 3.18
  32  0.920  0.497  0.490-   8 2.40  16 2.40  11 2.40   6 2.46   9 2.46  14 2.46  42 2.65  27 3.18
                            29 3.18  28 3.18  36 3.18  25 3.18  31 3.18
  33  0.170  0.997  0.490-  19 2.40   3 2.40  20 2.40  17 2.46  18 2.46   1 2.46  36 3.18  26 3.18
                            29 3.18  25 3.18  34 3.18  28 3.18
  34  0.420  0.830  0.490-  20 2.40  12 2.40  23 2.40  10 2.46  21 2.46  18 2.46  35 3.18  29 3.18
                            26 3.18  30 3.18  33 3.18  31 3.18
  35  0.670  0.997  0.490-  23 2.40   7 2.40  24 2.40  21 2.46  22 2.46   5 2.46  43 2.65  34 3.18
                            28 3.18  31 3.18  27 3.18  36 3.18  26 3.18
  36  0.920  0.830  0.490-  24 2.40  16 2.40  19 2.40  14 2.46  17 2.46  22 2.46  33 3.18  31 3.18
                            28 3.18  32 3.18  35 3.18  29 3.18
  37  0.420  0.164  0.622-  18 2.09   2 2.09   5 2.09  26 2.65
  38  0.670  0.330  0.622-   5 2.09   6 2.09  13 2.09  27 2.65
  39  0.920  0.164  0.622-  22 2.09   6 2.09   1 2.09  28 2.65
  40  0.420  0.497  0.622-   2 2.09  10 2.09  13 2.09  30 2.65
  41  0.670  0.664  0.622-  13 2.09  21 2.09  14 2.09  31 2.65
  42  0.920  0.497  0.622-   6 2.09  14 2.09   9 2.09  32 2.65
  43  0.670  0.997  0.622-  21 2.09   5 2.09  22 2.09  35 2.65
 

IMPORTANT INFORMATION: All symmetrisations will be switched off!
NOSYMM: (Re-)initialisation of all symmetry stuff for point group C_1.

 
 
 KPOINTS: Gamma-point only                        

Automatic generation of k-mesh.
Space group operators:
 irot       det(A)        alpha          n_x          n_y          n_z        tau_x        tau_y        tau_z
    1     1.000000     0.000001     1.000000     0.000000     0.000000     0.000000     0.000000     0.000000
 
 Subroutine IBZKPT returns following result:
 ===========================================
 
 Found      1 irreducible k-points:
 
 Following reciprocal coordinates:
            Coordinates               Weight
  0.000000  0.000000  0.000000      1.000000
 
 Following cartesian coordinates:
            Coordinates               Weight
  0.000000  0.000000  0.000000      1.000000
 


--------------------------------------------------------------------------------------------------------




 Dimension of arrays:
   k-points           NKPTS =      1   k-points in BZ     NKDIM =      1   number of bands    NBANDS=    252
   number of dos      NEDOS =    301   number of ions     NIONS =     43
   non local maximal  LDIM  =      6   non local SUM 2l+1 LMDIM =     18
   total plane-waves  NPLWV = 784000
   max r-space proj   IRMAX =      1   max aug-charges    IRDMAX=  16547
   dimension x,y,z NGX =    80 NGY =   70 NGZ =  140
   dimension x,y,z NGXF=   160 NGYF=  140 NGZF=  280
   support grid    NGXF=   160 NGYF=  140 NGZF=  280
   ions per type =              24  12   7
   NGX,Y,Z   is equivalent  to a cutoff of  12.08, 12.21, 11.65 a.u.
   NGXF,Y,Z  is equivalent  to a cutoff of  24.17, 24.42, 23.29 a.u.

 SYSTEM =  unknown system                          
 POSCAR =  unknown system                          

 Startparameter for this run:
   NWRITE =      2    write-flag & timer
   PREC   = a         normal or accurate (medium, high low for compatibility)
   ISTART =      0    job   : 0-new  1-cont  2-samecut
   ICHARG =      2    charge: 1-file 2-atom 10-const
   ISPIN  =      2    spin polarized calculation?
   LNONCOLLINEAR =      F non collinear calculations
   LSORBIT =      F    spin-orbit coupling
   INIWAV =      1    electr: 0-lowe 1-rand  2-diag
   LASPH  =      T    aspherical Exc in radial PAW
   METAGGA=      F    non-selfconsistent MetaGGA calc.

 Electronic Relaxation 1
   ENCUT  =  450.0 eV  33.07 Ry    5.75 a.u.  19.04 16.49 34.57*2*pi/ulx,y,z
   ENINI  =  450.0     initial cutoff
   ENAUG  =  544.6 eV  augmentation charge cutoff
   NELM   =    200;   NELMIN=  2; NELMDL= -5     # of ELM steps 
   EDIFF  = 0.1E-05   stopping-criterion for ELM
   LREAL  =      F    real-space projection
   NLSPLINE    = F    spline interpolate recip. space projectors
   LCOMPAT=      F    compatible to vasp.4.4
   GGA_COMPAT  = T    GGA compatible to vasp.4.4-vasp.4.6
   LMAXPAW     = -100 max onsite density
   LMAXMIX     =    4 max onsite mixed and CHGCAR
   VOSKOWN=      0    Vosko Wilk Nusair interpolation
   ROPT   =    0.00000   0.00000   0.00000
 Ionic relaxation
   EDIFFG = -.1E-02   stopping-criterion for IOM
   NSW    =      0    number of steps for IOM
   NBLOCK =      1;   KBLOCK =      1    inner block; outer block 
   IBRION =     -1    ionic relax: 0-MD 1-quasi-New 2-CG
   NFREE  =      0    steps in history (QN), initial steepest desc. (CG)
   ISIF   =      2    stress and relaxation
   IWAVPR =     10    prediction:  0-non 1-charg 2-wave 3-comb
   ISYM   =     -1    0-nonsym 1-usesym 2-fastsym
   LCORR  =      T    Harris-Foulkes like correction to forces

   POTIM  = 0.5000    time-step for ionic-motion
   TEIN   =    0.0    initial temperature
   TEBEG  =    0.0;   TEEND  =   0.0 temperature during run
   SMASS  =  -3.00    Nose mass-parameter (am)
   estimated Nose-frequenzy (Omega)   =  0.10E-29 period in steps =****** mass=  -0.277E-26a.u.
   SCALEE = 1.0000    scale energy and forces
   NPACO  =    256;   APACO  = 16.0  distance and # of slots for P.C.
   PSTRESS=    0.0 pullay stress

  Mass of Ions in am
   POMASS =  32.07 95.94 58.69
  Ionic Valenz
   ZVAL   =   6.00 14.00 10.00
  Atomic Wigner-Seitz radii
   RWIGS  =  -1.00 -1.00 -1.00
  virtual crystal weights 
   VCA    =   1.00  1.00  1.00
   NELECT =     382.0000    total number of electrons
   NUPDOWN=      -1.0000    fix difference up-down

 DOS related values:
   EMIN   =  10.00;   EMAX   =-10.00  energy-range for DOS
   EFERMI =   0.00
   ISMEAR =     0;   SIGMA  =   0.01  broadening in eV -4-tet -1-fermi 0-gaus

 Electronic relaxation 2 (details)
   IALGO  =     38    algorithm
   LDIAG  =      T    sub-space diagonalisation (order eigenvalues)
   LSUBROT=      F    optimize rotation matrix (better conditioning)
   TURBO    =      0    0=normal 1=particle mesh
   IRESTART =      0    0=no restart 2=restart with 2 vectors
   NREBOOT  =      0    no. of reboots
   NMIN     =      0    reboot dimension
   EREF     =   0.00    reference energy to select bands
   IMIX   =      4    mixing-type and parameters
     AMIX     =   0.02;   BMIX     =  0.00
     AMIX_MAG =   0.80;   BMIX_MAG =  0.00
     AMIN     =   0.02
     WC   =   100.;   INIMIX=   1;  MIXPRE=   1;  MAXMIX= -45

 Intra band minimization:
   WEIMIN = 0.0000     energy-eigenvalue tresh-hold
   EBREAK =  0.99E-09  absolut break condition
   DEPER  =   0.30     relativ break condition  

   TIME   =   0.40     timestep for ELM

  volume/ion in A,a.u.               =      48.77       329.11
  Fermi-wavevector in a.u.,A,eV,Ry     =   0.928026  1.753716 11.717788  0.861233
  Thomas-Fermi vector in A             =   2.054159
 
 Write flags
   LWAVE        =      F    write WAVECAR
   LDOWNSAMPLE  =      F    k-point downsampling of WAVECAR
   LCHARG       =      F    write CHGCAR
   LVTOT        =      F    write LOCPOT, total local potential
   LVHAR        =      F    write LOCPOT, Hartree potential only
   LELF         =      F    write electronic localiz. function (ELF)
   LORBIT       =     11    0 simple, 1 ext, 2 COOP (PROOUT), +10 PAW based schemes


 Dipole corrections
   LMONO  =      F    monopole corrections only (constant potential shift)
   LDIPOL =      F    correct potential (dipole corrections)
   IDIPOL =      0    1-x, 2-y, 3-z, 4-all directions 
   EPSILON=  1.0000000 bulk dielectric constant

 LDA+U is selected, type is set to LDAUTYPE =  2
   angular momentum for each species LDAUL =    -1   -1    2
   U (eV)           for each species LDAUU =   0.0  0.0  5.1
   J (eV)           for each species LDAUJ =   0.0  0.0  0.0
 Exchange correlation treatment:
   GGA     =    PE    GGA type
   LEXCH   =     8    internal setting for exchange type
   VOSKOWN=      0    Vosko Wilk Nusair interpolation
   LHFCALC =     F    Hartree Fock is set to
   LHFONE  =     F    Hartree Fock one center treatment
   AEXX    =    0.0000 exact exchange contribution

 Linear response parameters
   LEPSILON=     F    determine dielectric tensor
   LRPA    =     F    only Hartree local field effects (RPA)
   LNABLA  =     F    use nabla operator in PAW spheres
   LVEL    =     F    velocity operator in full k-point grid
   LINTERFAST=   F  fast interpolation
   KINTER  =     0    interpolate to denser k-point grid
   CSHIFT  =0.1000    complex shift for real part using Kramers Kronig
   OMEGAMAX=  -1.0    maximum frequency
   DEG_THRESHOLD= 0.2000000E-02 threshold for treating states as degnerate
   RTIME   =   -0.100 relaxation time in fs
  (WPLASMAI=    0.000 imaginary part of plasma frequency in eV, 0.658/RTIME)
   DFIELD  = 0.0000000 0.0000000 0.0000000 field for delta impulse in time
 
 Orbital magnetization related:
   ORBITALMAG=     F  switch on orbital magnetization
   LCHIMAG   =     F  perturbation theory with respect to B field
   DQ        =  0.001000  dq finite difference perturbation B field
   LLRAUG    =     F  two centre corrections for induced B field



--------------------------------------------------------------------------------------------------------


 Static calculation
 charge density and potential will be updated during run
 spin polarized calculation
 Variant of blocked Davidson
 Davidson routine will perform the subspace rotation
 perform sub-space diagonalisation
    after iterative eigenvector-optimisation
 modified Broyden-mixing scheme, WC =      100.0
 initial mixing is a Kerker type mixing with AMIX =  0.0200 and BMIX =      0.0001
 Hartree-type preconditioning will be used
 using additional bands           61
 reciprocal scheme for non local part
 use partial core corrections
 calculate Harris-corrections to forces 
   (improved forces if not selfconsistent)
 use gradient corrections 
 use of overlap-Matrix (Vanderbilt PP)
 Gauss-broadening in eV      SIGMA  =   0.01


--------------------------------------------------------------------------------------------------------


  energy-cutoff  :      450.00
  volume of cell :     2097.04
      direct lattice vectors                 reciprocal lattice vectors
    11.007200000  0.000000000  0.000000000     0.090849626  0.000009197  0.000000000
    -0.000965000  9.532200000  0.000000000     0.000000000  0.104907576  0.000000000
     0.000000000  0.000000000 19.986500000     0.000000000  0.000000000  0.050033773

  length of vectors
    11.007200000  9.532200049 19.986500000     0.090849626  0.104907576  0.050033773


 
 k-points in units of 2pi/SCALE and weight: Gamma-point only                        
   0.00000000  0.00000000  0.00000000       1.000
 
 k-points in reciprocal lattice and weights: Gamma-point only                        
   0.00000000  0.00000000  0.00000000       1.000
 
 position of ions in fractional coordinates (direct lattice) 
   0.08633000  0.16356000  0.57165003
   0.33633000  0.33023000  0.57165003
   0.08634000  0.16354001  0.41242999
   0.33634001  0.33021000  0.41242999
   0.58633000  0.16356000  0.57165003
   0.83633000  0.33023000  0.57165003
   0.58634001  0.16354001  0.41242999
   0.83634001  0.33021000  0.41242999
   0.08633000  0.49689999  0.57165003
   0.33633000  0.66355997  0.57165003
   0.08634000  0.49688000  0.41242999
   0.33634001  0.66354001  0.41242999
   0.58633000  0.49689999  0.57165003
   0.83633000  0.66355997  0.57165003
   0.58634001  0.49688000  0.41242999
   0.83634001  0.66354001  0.41242999
   0.08633000  0.83023000  0.57165003
   0.33633000  0.99690002  0.57165003
   0.08634000  0.83020997  0.41242999
   0.33634001  0.99688000  0.41242999
   0.58633000  0.83023000  0.57165003
   0.83633000  0.99690002  0.57165003
   0.58634001  0.83020997  0.41242999
   0.83634001  0.99688000  0.41242999
   0.16967000  0.33022001  0.48971999
   0.41966999  0.16355000  0.48971999
   0.66966999  0.33022001  0.48971999
   0.91966999  0.16355000  0.48971999
   0.16967000  0.66355002  0.48971999
   0.41966999  0.49688000  0.48971999
   0.66966999  0.66355002  0.48971999
   0.91966999  0.49688000  0.48971999
   0.16967000  0.99688000  0.48971999
   0.41966999  0.83021998  0.48971999
   0.66966999  0.99688000  0.48971999
   0.91966999  0.83021998  0.48971999
   0.41966000  0.16357000  0.62221998
   0.66965997  0.33023000  0.62221998
   0.91965997  0.16357000  0.62221998
   0.41966000  0.49689999  0.62221998
   0.66965997  0.66356999  0.62221998
   0.91965997  0.49689999  0.62221998
   0.66965997  0.99690002  0.62221998
 
 position of ions in cartesian coordinates  (Angst):
   0.95009374  1.55908663 11.42528332
   3.70173290  3.14781841 11.42528332
   0.95020383  1.55889608  8.24303200
   3.70184311  3.14762776  8.24303200
   6.45369374  1.55908663 11.42528332
   9.20533290  3.14781841 11.42528332
   6.45380394  1.55889608  8.24303200
   9.20544311  3.14762776  8.24303200
   0.94977207  4.73655008 11.42528332
   3.70141124  6.32518635 11.42528332
   0.94988216  4.73635954  8.24303200
   3.70152144  6.32499608  8.24303200
   6.45337207  4.73655008 11.42528332
   9.20501124  6.32518635 11.42528332
   6.45348227  4.73635954  8.24303200
   9.20512144  6.32499608  8.24303200
   0.94945040  7.91391841 11.42528332
   3.70108957  9.50265037 11.42528332
   0.94956050  7.91372748  8.24303200
   3.70119977  9.50245954  8.24303200
   6.45305040  7.91391841 11.42528332
   9.20468957  9.50265037 11.42528332
   6.45316061  7.91372748  8.24303200
   9.20479977  9.50245954  8.24303200
   1.86727296  3.14772318  9.78778858
   4.61923369  1.55899131  9.78778858
   7.37087285  3.14772318  9.78778858
  10.12283369  1.55899131  9.78778858
   1.86695130  6.32509150  9.78778858
   4.61891202  4.73635954  9.78778858
   7.37055119  6.32509150  9.78778858
  10.12251202  4.73635954  9.78778858
   1.86662963  9.50245954  9.78778858
   4.61859035  7.91382289  9.78778858
   7.37022952  9.50245954  9.78778858
  10.12219035  7.91382289  9.78778858
   4.61912371  1.55918195 12.43599963
   7.37076255  3.14781841 12.43599963
  10.12272338  1.55918195 12.43599963
   4.61880204  4.73655008 12.43599963
   7.37044088  6.32528186 12.43599963
  10.12240171  4.73655008 12.43599963
   7.37011921  9.50265037 12.43599963
 


--------------------------------------------------------------------------------------------------------


 k-point  1 :   0.0000 0.0000 0.0000  plane waves:   45499

 maximum and minimum number of plane-waves per node :      3799     3786

 maximum number of plane-waves:     45499
 maximum index in each direction: 
   IXMAX=   19   IYMAX=   16   IZMAX=   34
   IXMIN=  -19   IYMIN=  -16   IZMIN=  -34


 parallel 3D FFT for wavefunctions:
    minimum data exchange during FFTs selected (reduces bandwidth)
 parallel 3D FFT for charge:
    minimum data exchange during FFTs selected (reduces bandwidth)


 total amount of memory used by VASP MPI-rank0    68622. kBytes
=======================================================================

   base      :      30000. kBytes
   nonl-proj :       4256. kBytes
   fftplans  :       7095. kBytes
   grid      :      19382. kBytes
   one-center:        124. kBytes
   wavefun   :       7765. kBytes
 
     INWAV:  cpu time    0.0000: real time    0.0003
 Broyden mixing: mesh for mixing (old mesh)
   NGX = 39   NGY = 33   NGZ = 69
  (NGX  =160   NGY  =140   NGZ  =280)
  gives a total of  88803 points

 initial charge density was supplied:
 charge density of overlapping atoms calculated
 number of electron     382.0000000 magnetization      43.0000000
 keeping initial charge density in first step


--------------------------------------------------------------------------------------------------------


 Maximum index for augmentation-charges          976 (set IRDMAX)


--------------------------------------------------------------------------------------------------------


 First call to EWALD:  gamma=   0.138
 Maximum number of real-space cells 3x 4x 2
 Maximum number of reciprocal cells 2x 2x 4

    FEWALD:  cpu time    0.0015: real time    0.0016


--------------------------------------- Iteration      1(   1)  ---------------------------------------


    POTLOK:  cpu time    0.2440: real time    0.2496
    SETDIJ:  cpu time    0.3671: real time    0.3683
     EDDAV:  cpu time    5.0371: real time    5.0573
       DOS:  cpu time    0.0004: real time    0.0004
    --------------------------------------------
      LOOP:  cpu time    5.6486: real time    5.6755

 eigenvalue-minimisations  :  1240
 total energy-change (2. order) : 0.3588934E+04  (-0.1711696E+05)
 number of electron     382.0000000 magnetization      43.0000000
 augmentation part      382.0000000 magnetization      43.0000000

 Free energy of the ion-electron system (eV)
  ---------------------------------------------------
  alpha Z        PSCENC =       462.75907254
  Ewald energy   TEWEN  =     89161.97584334
  -Hartree energ DENC   =   -121859.24345317
  -exchange      EXHF   =         0.00000000
  -V(xc)+E(xc)   XCENC  =      1326.43649976
  PAW double counting   =     29930.64701431   -29970.62728893
  entropy T*S    EENTRO =        -0.00000000
  eigenvalues    EBANDS =     -1997.71059069
  atomic energy  EATOM  =     36534.69703334
  Solvation  Ediel_sol  =         0.00000000
  ---------------------------------------------------
  free energy    TOTEN  =      3588.93413050 eV

  energy without entropy =     3588.93413050  energy(sigma->0) =     3588.93413050


--------------------------------------------------------------------------------------------------------




--------------------------------------- Iteration      1(   2)  ---------------------------------------


     EDDAV:  cpu time    4.9190: real time    4.9371
       DOS:  cpu time    0.0004: real time    0.0004
    --------------------------------------------
      LOOP:  cpu time    4.9194: real time    4.9375

 eigenvalue-minimisations  :  1208
 total energy-change (2. order) :-0.3515313E+04  (-0.3381277E+04)
 number of electron     382.0000000 magnetization      43.0000000
 augmentation part      382.0000000 magnetization      43.0000000

 Free energy of the ion-electron system (eV)
  ---------------------------------------------------
  alpha Z        PSCENC =       462.75907254
  Ewald energy   TEWEN  =     89161.97584334
  -Hartree energ DENC   =   -121859.24345317
  -exchange      EXHF   =         0.00000000
  -V(xc)+E(xc)   XCENC  =      1326.43649976
  PAW double counting   =     29930.64701431   -29970.62728893
  entropy T*S    EENTRO =        -0.00001613
  eigenvalues    EBANDS =     -5513.02364351
  atomic energy  EATOM  =     36534.69703334
  Solvation  Ediel_sol  =         0.00000000
  ---------------------------------------------------
  free energy    TOTEN  =        73.62106154 eV

  energy without entropy =       73.62107767  energy(sigma->0) =       73.62106961


--------------------------------------------------------------------------------------------------------




--------------------------------------- Iteration      1(   3)  ---------------------------------------


     EDDAV:  cpu time    4.8723: real time    4.8906
       DOS:  cpu time    0.0002: real time    0.0002
    --------------------------------------------
      LOOP:  cpu time    4.8725: real time    4.8908

 eigenvalue-minimisations  :  1192
 total energy-change (2. order) :-0.3395968E+03  (-0.3328487E+03)
 number of electron     382.0000000 magnetization      43.0000000
 augmentation part      382.0000000 magnetization      43.0000000

 Free energy of the ion-electron system (eV)
  ---------------------------------------------------
  alpha Z        PSCENC =       462.75907254
  Ewald energy   TEWEN  =     89161.97584334
  -Hartree energ DENC   =   -121859.24345317
  -exchange      EXHF   =         0.00000000
  -V(xc)+E(xc)   XCENC  =      1326.43649976
  PAW double counting   =     29930.64701431   -29970.62728893
  entropy T*S    EENTRO =        -0.00000000
  eigenvalues    EBANDS =     -5852.62045510
  atomic energy  EATOM  =     36534.69703334
  Solvation  Ediel_sol  =         0.00000000
  ---------------------------------------------------
  free energy    TOTEN  =      -265.97573392 eV

  energy without entropy =     -265.97573392  energy(sigma->0) =     -265.97573392


--------------------------------------------------------------------------------------------------------




--------------------------------------- Iteration      1(   4)  ---------------------------------------


     EDDAV:  cpu time    5.0620: real time    5.0828
       DOS:  cpu time    0.0002: real time    0.0002
    --------------------------------------------
      LOOP:  cpu time    5.0622: real time    5.0830

 eigenvalue-minimisations  :  1216
 total energy-change (2. order) :-0.1376895E+02  (-0.1349778E+02)
 number of electron     382.0000000 magnetization      43.0000000
 augmentation part      382.0000000 magnetization      43.0000000

 Free energy of the ion-electron system (eV)
  ---------------------------------------------------
  alpha Z        PSCENC =       462.75907254
  Ewald energy   TEWEN  =     89161.97584334
  -Hartree energ DENC   =   -121859.24345317
  -exchange      EXHF   =         0.00000000
  -V(xc)+E(xc)   XCENC  =      1326.43649976
  PAW double counting   =     29930.64701431   -29970.62728893
  entropy T*S    EENTRO =        -0.00000000
  eigenvalues    EBANDS =     -5866.38940205
  atomic energy  EATOM  =     36534.69703334
  Solvation  Ediel_sol  =         0.00000000
  ---------------------------------------------------
  free energy    TOTEN  =      -279.74468086 eV

  energy without entropy =     -279.74468086  energy(sigma->0) =     -279.74468086


--------------------------------------------------------------------------------------------------------




--------------------------------------- Iteration      1(   5)  ---------------------------------------


     EDDAV:  cpu time    5.2888: real time    5.3090
       DOS:  cpu time    0.0004: real time    0.0004
    CHARGE:  cpu time    0.1273: real time    0.1279
    MIXING:  cpu time    0.0094: real time    0.0100
    --------------------------------------------
      LOOP:  cpu time    5.4260: real time    5.4473

 eigenvalue-minimisations  :  1328
 total energy-change (2. order) :-0.5357691E+00  (-0.5331163E+00)
 number of electron     382.0000015 magnetization       8.6000035
 augmentation part       49.3047892 magnetization       9.4693428

 Broyden mixing:
  rms(total) = 0.90894E+01    rms(broyden)= 0.90894E+01
  rms(prec ) = 0.91884E+01
  weight for this iteration     100.00

 Free energy of the ion-electron system (eV)
  ---------------------------------------------------
  alpha Z        PSCENC =       462.75907254
  Ewald energy   TEWEN  =     89161.97584334
  -Hartree energ DENC   =   -121859.24345317
  -exchange      EXHF   =         0.00000000
  -V(xc)+E(xc)   XCENC  =      1326.43649976
  PAW double counting   =     29930.64701431   -29970.62728893
  entropy T*S    EENTRO =        -0.00000000
  eigenvalues    EBANDS =     -5866.92517112
  atomic energy  EATOM  =     36534.69703334
  Solvation  Ediel_sol  =         0.00000000
  ---------------------------------------------------
  free energy    TOTEN  =      -280.28044993 eV

  energy without entropy =     -280.28044993  energy(sigma->0) =     -280.28044993


--------------------------------------------------------------------------------------------------------




--------------------------------------- Iteration      1(   6)  ---------------------------------------


    POTLOK:  cpu time    0.2407: real time    0.2446
    SETDIJ:  cpu time    0.3542: real time    0.3553
     EDDAV:  cpu time    5.3168: real time    5.3375
       DOS:  cpu time    0.0004: real time    0.0004
    CHARGE:  cpu time    0.1272: real time    0.1277
    MIXING:  cpu time    0.0094: real time    0.0097
    --------------------------------------------
      LOOP:  cpu time    6.0489: real time    6.0752

 eigenvalue-minimisations  :  1344
 total energy-change (2. order) :-0.6654200E+01  (-0.9781451E-01)
 number of electron     382.0000015 magnetization      -4.6214527
 augmentation part       49.5217342 magnetization      -4.1086218

 Broyden mixing:
  rms(total) = 0.83817E+01    rms(broyden)= 0.83817E+01
  rms(prec ) = 0.84721E+01
  weight for this iteration     100.00

 eigenvalues of (default mixing * dielectric matrix)
  average eigenvalue GAMMA=   1.2857
  1.2857

 Free energy of the ion-electron system (eV)
  ---------------------------------------------------
  alpha Z        PSCENC =       462.75907254
  Ewald energy   TEWEN  =     89161.97584334
  -Hartree energ DENC   =   -121839.01488907
  -exchange      EXHF   =         0.00000000
  -V(xc)+E(xc)   XCENC  =      1322.38221342
  PAW double counting   =     30180.70725067   -30223.76177013
  entropy T*S    EENTRO =        -0.00000000
  eigenvalues    EBANDS =     -5886.67940437
  atomic energy  EATOM  =     36534.69703334
  Solvation  Ediel_sol  =         0.00000000
  ---------------------------------------------------
  free energy    TOTEN  =      -286.93465027 eV

  energy without entropy =     -286.93465027  energy(sigma->0) =     -286.93465027


--------------------------------------------------------------------------------------------------------




--------------------------------------- Iteration      1(   7)  ---------------------------------------


    POTLOK:  cpu time    0.2406: real time    0.2445
    SETDIJ:  cpu time    0.3574: real time    0.3585
     EDDAV:  cpu time    5.0860: real time    5.1062
       DOS:  cpu time    0.0004: real time    0.0004
    CHARGE:  cpu time    0.1282: real time    0.1287
    MIXING:  cpu time    0.0092: real time    0.0092
    --------------------------------------------
      LOOP:  cpu time    5.8219: real time    5.8475

 eigenvalue-minimisations  :  1264
 total energy-change (2. order) : 0.3597437E+01  (-0.1673550E+00)
 number of electron     382.0000015 magnetization      -0.3140679
 augmentation part       50.0020289 magnetization      -0.2024435

 Broyden mixing:
  rms(total) = 0.76968E+01    rms(broyden)= 0.76968E+01
  rms(prec ) = 0.77660E+01
  weight for this iteration     100.00

 eigenvalues of (default mixing * dielectric matrix)
  average eigenvalue GAMMA=   2.4209
  1.2432  3.5986

 Free energy of the ion-electron system (eV)
  ---------------------------------------------------
  alpha Z        PSCENC =       462.75907254
  Ewald energy   TEWEN  =     89161.97584334
  -Hartree energ DENC   =   -121808.12510596
  -exchange      EXHF   =         0.00000000
  -V(xc)+E(xc)   XCENC  =      1321.15139145
  PAW double counting   =     30656.07477714   -30702.17994388
  entropy T*S    EENTRO =        -0.00000000
  eigenvalues    EBANDS =     -5909.69028151
  atomic energy  EATOM  =     36534.69703334
  Solvation  Ediel_sol  =         0.00000000
  ---------------------------------------------------
  free energy    TOTEN  =      -283.33721354 eV

  energy without entropy =     -283.33721354  energy(sigma->0) =     -283.33721354


--------------------------------------------------------------------------------------------------------




--------------------------------------- Iteration      1(   8)  ---------------------------------------


    POTLOK:  cpu time    0.2421: real time    0.2448
    SETDIJ:  cpu time    0.3545: real time    0.3556
     EDDAV:  cpu time    5.1874: real time    5.2057
       DOS:  cpu time    0.0004: real time    0.0005
    CHARGE:  cpu time    0.1272: real time    0.1277
    MIXING:  cpu time    0.0096: real time    0.0097
    --------------------------------------------
      LOOP:  cpu time    5.9213: real time    5.9439

 eigenvalue-minimisations  :  1304
 total energy-change (2. order) : 0.7721641E+01  (-0.4231699E+01)
 number of electron     382.0000013 magnetization      -0.0218563
 augmentation part       53.6555531 magnetization      -1.8900761

 Broyden mixing:
  rms(total) = 0.43307E+01    rms(broyden)= 0.43306E+01
  rms(prec ) = 0.44909E+01
  weight for this iteration     100.00

 eigenvalues of (default mixing * dielectric matrix)
  average eigenvalue GAMMA=   4.7006
 11.5267  1.2493  1.3259

 Free energy of the ion-electron system (eV)
  ---------------------------------------------------
  alpha Z        PSCENC =       462.75907254
  Ewald energy   TEWEN  =     89161.97584334
  -Hartree energ DENC   =   -121653.01918463
  -exchange      EXHF   =         0.00000000
  -V(xc)+E(xc)   XCENC  =      1315.10346993
  PAW double counting   =     34393.89165005   -34456.41108920
  entropy T*S    EENTRO =        -0.00000000
  eigenvalues    EBANDS =     -6034.61236811
  atomic energy  EATOM  =     36534.69703334
  Solvation  Ediel_sol  =         0.00000000
  ---------------------------------------------------
  free energy    TOTEN  =      -275.61557274 eV

  energy without entropy =     -275.61557274  energy(sigma->0) =     -275.61557274


--------------------------------------------------------------------------------------------------------




--------------------------------------- Iteration      1(   9)  ---------------------------------------


    POTLOK:  cpu time    0.2435: real time    0.2446
    SETDIJ:  cpu time    0.3551: real time    0.3561
     EDDAV:  cpu time    5.6903: real time    5.7107
       DOS:  cpu time    0.0004: real time    0.0004
    CHARGE:  cpu time    0.1273: real time    0.1278
    MIXING:  cpu time    0.0094: real time    0.0094
    --------------------------------------------
      LOOP:  cpu time    6.4261: real time    6.4489

 eigenvalue-minimisations  :  1408
 total energy-change (2. order) :-0.8680632E+00  (-0.8638767E+00)
 number of electron     382.0000014 magnetization       0.6558235
 augmentation part       56.0525612 magnetization      -0.9486497

 Broyden mixing:
  rms(total) = 0.34476E+01    rms(broyden)= 0.34476E+01
  rms(prec ) = 0.36061E+01
  weight for this iteration     100.00

 eigenvalues of (default mixing * dielectric matrix)
  average eigenvalue GAMMA=   5.7273
 19.4012  1.5881  1.2168  0.7032

 Free energy of the ion-electron system (eV)
  ---------------------------------------------------
  alpha Z        PSCENC =       462.75907254
  Ewald energy   TEWEN  =     89161.97584334
  -Hartree energ DENC   =   -121675.11874409
  -exchange      EXHF   =         0.00000000
  -V(xc)+E(xc)   XCENC  =      1313.43006098
  PAW double counting   =     35782.47965305   -35846.98086117
  entropy T*S    EENTRO =        -0.00000000
  eigenvalues    EBANDS =     -6009.72569390
  atomic energy  EATOM  =     36534.69703334
  Solvation  Ediel_sol  =         0.00000000
  ---------------------------------------------------
  free energy    TOTEN  =      -276.48363591 eV

  energy without entropy =     -276.48363591  energy(sigma->0) =     -276.48363591


--------------------------------------------------------------------------------------------------------




--------------------------------------- Iteration      1(  10)  ---------------------------------------


    POTLOK:  cpu time    0.2434: real time    0.2445
    SETDIJ:  cpu time    0.3544: real time    0.3554
     EDDAV:  cpu time    5.5699: real time    5.5887
       DOS:  cpu time    0.0004: real time    0.0004
    CHARGE:  cpu time    0.1329: real time    0.1333
    MIXING:  cpu time    0.0100: real time    0.0100
    --------------------------------------------
      LOOP:  cpu time    6.3111: real time    6.3355

 eigenvalue-minimisations  :  1424
 total energy-change (2. order) : 0.4049072E+00  (-0.2377258E+00)
 number of electron     382.0000014 magnetization      -0.6509667
 augmentation part       57.4284176 magnetization      -1.5493852

 Broyden mixing:
  rms(total) = 0.28786E+01    rms(broyden)= 0.28786E+01
  rms(prec ) = 0.30024E+01
  weight for this iteration     100.00

 eigenvalues of (default mixing * dielectric matrix)
  average eigenvalue GAMMA=   5.2748
 21.0631  2.0254  1.0305  1.0305  1.2244

 Free energy of the ion-electron system (eV)
  ---------------------------------------------------
  alpha Z        PSCENC =       462.75907254
  Ewald energy   TEWEN  =     89161.97584334
  -Hartree energ DENC   =   -121744.49000386
  -exchange      EXHF   =         0.00000000
  -V(xc)+E(xc)   XCENC  =      1312.51508299
  PAW double counting   =     37096.04302708   -37161.47137135
  entropy T*S    EENTRO =        -0.00000000
  eigenvalues    EBANDS =     -5938.10741278
  atomic energy  EATOM  =     36534.69703334
  Solvation  Ediel_sol  =         0.00000000
  ---------------------------------------------------
  free energy    TOTEN  =      -276.07872869 eV

  energy without entropy =     -276.07872869  energy(sigma->0) =     -276.07872869


--------------------------------------------------------------------------------------------------------




--------------------------------------- Iteration      1(  11)  ---------------------------------------


    POTLOK:  cpu time    0.2397: real time    0.2471
    SETDIJ:  cpu time    0.3541: real time    0.3553
     EDDAV:  cpu time    5.6078: real time    5.6257
       DOS:  cpu time    0.0004: real time    0.0004
    CHARGE:  cpu time    0.1277: real time    0.1281
    MIXING:  cpu time    0.0096: real time    0.0096
    --------------------------------------------
      LOOP:  cpu time    6.3393: real time    6.3628

 eigenvalue-minimisations  :  1440
 total energy-change (2. order) : 0.1074007E+01  (-0.2675709E+00)
 number of electron     382.0000015 magnetization      -0.4485824
 augmentation part       57.6978770 magnetization      -0.4430687

 Broyden mixing:
  rms(total) = 0.22604E+01    rms(broyden)= 0.22604E+01
  rms(prec ) = 0.23548E+01
  weight for this iteration     100.00

 eigenvalues of (default mixing * dielectric matrix)
  average eigenvalue GAMMA=   5.8598
 27.1390  3.3483  1.3852  1.0381  1.0381  1.2102

 Free energy of the ion-electron system (eV)
  ---------------------------------------------------
  alpha Z        PSCENC =       462.75907254
  Ewald energy   TEWEN  =     89161.97584334
  -Hartree energ DENC   =   -121871.88108273
  -exchange      EXHF   =         0.00000000
  -V(xc)+E(xc)   XCENC  =      1312.51661484
  PAW double counting   =     38786.93326805   -38853.47263557
  entropy T*S    EENTRO =        -0.00000000
  eigenvalues    EBANDS =     -5808.53283511
  atomic energy  EATOM  =     36534.69703334
  Solvation  Ediel_sol  =         0.00000000
  ---------------------------------------------------
  free energy    TOTEN  =      -275.00472131 eV

  energy without entropy =     -275.00472131  energy(sigma->0) =     -275.00472131


--------------------------------------------------------------------------------------------------------




--------------------------------------- Iteration      1(  12)  ---------------------------------------


    POTLOK:  cpu time    0.2407: real time    0.2435
    SETDIJ:  cpu time    0.3560: real time    0.3570
     EDDAV:  cpu time    5.3983: real time    5.4153
       DOS:  cpu time    0.0005: real time    0.0005
    CHARGE:  cpu time    0.1278: real time    0.1282
    MIXING:  cpu time    0.0097: real time    0.0098
    --------------------------------------------
      LOOP:  cpu time    6.1330: real time    6.1542

 eigenvalue-minimisations  :  1368
 total energy-change (2. order) : 0.1690688E+01  (-0.4162777E+00)
 number of electron     382.0000015 magnetization      -0.1087901
 augmentation part       56.5950687 magnetization       0.4201689

 Broyden mixing:
  rms(total) = 0.15872E+01    rms(broyden)= 0.15872E+01
  rms(prec ) = 0.16487E+01
  weight for this iteration     100.00

 eigenvalues of (default mixing * dielectric matrix)
  average eigenvalue GAMMA=   5.8398
 29.7911  4.6428  1.8803  0.9243  1.2204  1.2100  1.2100

 Free energy of the ion-electron system (eV)
  ---------------------------------------------------
  alpha Z        PSCENC =       462.75907254
  Ewald energy   TEWEN  =     89161.97584334
  -Hartree energ DENC   =   -122031.18017328
  -exchange      EXHF   =         0.00000000
  -V(xc)+E(xc)   XCENC  =      1313.75473140
  PAW double counting   =     40741.43928877   -40809.28493726
  entropy T*S    EENTRO =        -0.00000000
  eigenvalues    EBANDS =     -5647.47489264
  atomic energy  EATOM  =     36534.69703334
  Solvation  Ediel_sol  =         0.00000000
  ---------------------------------------------------
  free energy    TOTEN  =      -273.31403380 eV

  energy without entropy =     -273.31403380  energy(sigma->0) =     -273.31403380


--------------------------------------------------------------------------------------------------------




--------------------------------------- Iteration      1(  13)  ---------------------------------------


    POTLOK:  cpu time    0.2423: real time    0.2434
    SETDIJ:  cpu time    0.3540: real time    0.3549
     EDDAV:  cpu time    5.5342: real time    5.5524
       DOS:  cpu time    0.0004: real time    0.0004
    CHARGE:  cpu time    0.1293: real time    0.1297
    MIXING:  cpu time    0.0100: real time    0.0101
    --------------------------------------------
      LOOP:  cpu time    6.2702: real time    6.2909

 eigenvalue-minimisations  :  1416
 total energy-change (2. order) : 0.3150528E+00  (-0.3658340E+00)
 number of electron     382.0000015 magnetization       0.0452848
 augmentation part       54.8311518 magnetization       0.4685065

 Broyden mixing:
  rms(total) = 0.91710E+00    rms(broyden)= 0.91709E+00
  rms(prec ) = 0.98702E+00
  weight for this iteration     100.00

 eigenvalues of (default mixing * dielectric matrix)
  average eigenvalue GAMMA=   6.7545
 36.5822  8.8758  2.6259  1.5651  1.2646  0.9299  1.0962  1.0962

 Free energy of the ion-electron system (eV)
  ---------------------------------------------------
  alpha Z        PSCENC =       462.75907254
  Ewald energy   TEWEN  =     89161.97584334
  -Hartree energ DENC   =   -122146.60203467
  -exchange      EXHF   =         0.00000000
  -V(xc)+E(xc)   XCENC  =      1315.05081956
  PAW double counting   =     42621.38199815   -42691.82683667
  entropy T*S    EENTRO =        -0.00000000
  eigenvalues    EBANDS =     -5530.43487661
  atomic energy  EATOM  =     36534.69703334
  Solvation  Ediel_sol  =         0.00000000
  ---------------------------------------------------
  free energy    TOTEN  =      -272.99898102 eV

  energy without entropy =     -272.99898102  energy(sigma->0) =     -272.99898102


--------------------------------------------------------------------------------------------------------




--------------------------------------- Iteration      1(  14)  ---------------------------------------


    POTLOK:  cpu time    0.2427: real time    0.2438
    SETDIJ:  cpu time    0.3545: real time    0.3554
     EDDAV:  cpu time    5.7977: real time    5.8182
       DOS:  cpu time    0.0004: real time    0.0004
    CHARGE:  cpu time    0.1274: real time    0.1278
    MIXING:  cpu time    0.0102: real time    0.0102
    --------------------------------------------
      LOOP:  cpu time    6.5329: real time    6.5559

 eigenvalue-minimisations  :  1480
 total energy-change (2. order) :-0.1827810E+00  (-0.1525906E+00)
 number of electron     382.0000015 magnetization      -0.0750035
 augmentation part       54.0199982 magnetization       0.0768463

 Broyden mixing:
  rms(total) = 0.60059E+00    rms(broyden)= 0.60056E+00
  rms(prec ) = 0.70777E+00
  weight for this iteration     100.00

 eigenvalues of (default mixing * dielectric matrix)
  average eigenvalue GAMMA=   6.5731
 39.1296 10.1098  2.9393  1.6036  1.3126  1.1430  1.0165  1.0165  0.8870

 Free energy of the ion-electron system (eV)
  ---------------------------------------------------
  alpha Z        PSCENC =       462.75907254
  Ewald energy   TEWEN  =     89161.97584334
  -Hartree energ DENC   =   -122170.42855643
  -exchange      EXHF   =         0.00000000
  -V(xc)+E(xc)   XCENC  =      1315.49708575
  PAW double counting   =     43863.43893132   -43935.45383223
  entropy T*S    EENTRO =        -0.00000000
  eigenvalues    EBANDS =     -5505.66733961
  atomic energy  EATOM  =     36534.69703334
  Solvation  Ediel_sol  =         0.00000000
  ---------------------------------------------------
  free energy    TOTEN  =      -273.18176198 eV

  energy without entropy =     -273.18176198  energy(sigma->0) =     -273.18176198


--------------------------------------------------------------------------------------------------------




--------------------------------------- Iteration      1(  15)  ---------------------------------------


    POTLOK:  cpu time    0.2427: real time    0.2438
    SETDIJ:  cpu time    0.3537: real time    0.3547
     EDDAV:  cpu time    5.3241: real time    5.3418
       DOS:  cpu time    0.0004: real time    0.0004
    CHARGE:  cpu time    0.1270: real time    0.1274
    MIXING:  cpu time    0.0104: real time    0.0105
    --------------------------------------------
      LOOP:  cpu time    6.0584: real time    6.0786

 eigenvalue-minimisations  :  1348
 total energy-change (2. order) : 0.3272034E+00  (-0.2989125E-01)
 number of electron     382.0000015 magnetization      -0.0031747
 augmentation part       53.9461809 magnetization       0.0155982

 Broyden mixing:
  rms(total) = 0.55152E+00    rms(broyden)= 0.55151E+00
  rms(prec ) = 0.63601E+00
  weight for this iteration     100.00

 eigenvalues of (default mixing * dielectric matrix)
  average eigenvalue GAMMA=   6.3554
 40.7828 11.1147  3.1706  1.6827  1.4897  1.2277  1.1110  1.1110  0.9320  0.9320

 Free energy of the ion-electron system (eV)
  ---------------------------------------------------
  alpha Z        PSCENC =       462.75907254
  Ewald energy   TEWEN  =     89161.97584334
  -Hartree energ DENC   =   -122142.25827179
  -exchange      EXHF   =         0.00000000
  -V(xc)+E(xc)   XCENC  =      1315.48823920
  PAW double counting   =     44160.89478367   -44232.90769101
  entropy T*S    EENTRO =        -0.00000000
  eigenvalues    EBANDS =     -5533.50356783
  atomic energy  EATOM  =     36534.69703334
  Solvation  Ediel_sol  =         0.00000000
  ---------------------------------------------------
  free energy    TOTEN  =      -272.85455854 eV

  energy without entropy =     -272.85455854  energy(sigma->0) =     -272.85455854


--------------------------------------------------------------------------------------------------------




--------------------------------------- Iteration      1(  16)  ---------------------------------------


    POTLOK:  cpu time    0.2428: real time    0.2438
    SETDIJ:  cpu time    0.3556: real time    0.3565
     EDDAV:  cpu time    5.2464: real time    5.2640
       DOS:  cpu time    0.0004: real time    0.0004
    CHARGE:  cpu time    0.1278: real time    0.1282
    MIXING:  cpu time    0.0110: real time    0.0111
    --------------------------------------------
      LOOP:  cpu time    5.9839: real time    6.0040

 eigenvalue-minimisations  :  1320
 total energy-change (2. order) : 0.4763037E+00  (-0.5142490E-01)
 number of electron     382.0000015 magnetization       0.0342395
 augmentation part       53.7718425 magnetization      -0.0477071

 Broyden mixing:
  rms(total) = 0.43703E+00    rms(broyden)= 0.43702E+00
  rms(prec ) = 0.49336E+00
  weight for this iteration     100.00

 eigenvalues of (default mixing * dielectric matrix)
  average eigenvalue GAMMA=   6.2517
 42.1152 12.2863  3.4046  2.8000  1.3521  1.3521  1.2980  1.1285  1.1285  0.9953
  0.9086

 Free energy of the ion-electron system (eV)
  ---------------------------------------------------
  alpha Z        PSCENC =       462.75907254
  Ewald energy   TEWEN  =     89161.97584334
  -Hartree energ DENC   =   -122093.25870266
  -exchange      EXHF   =         0.00000000
  -V(xc)+E(xc)   XCENC  =      1315.63270096
  PAW double counting   =     44863.85447465   -44935.32564514
  entropy T*S    EENTRO =        -0.00000000
  eigenvalues    EBANDS =     -5582.71303191
  atomic energy  EATOM  =     36534.69703334
  Solvation  Ediel_sol  =         0.00000000
  ---------------------------------------------------
  free energy    TOTEN  =      -272.37825487 eV

  energy without entropy =     -272.37825487  energy(sigma->0) =     -272.37825487


--------------------------------------------------------------------------------------------------------




--------------------------------------- Iteration      1(  17)  ---------------------------------------


    POTLOK:  cpu time    0.2427: real time    0.2437
    SETDIJ:  cpu time    0.3554: real time    0.3564
     EDDAV:  cpu time    5.1638: real time    5.1805
       DOS:  cpu time    0.0004: real time    0.0004
    CHARGE:  cpu time    0.1269: real time    0.1273
    MIXING:  cpu time    0.0109: real time    0.0110
    --------------------------------------------
      LOOP:  cpu time    5.9003: real time    5.9192

 eigenvalue-minimisations  :  1296
 total energy-change (2. order) : 0.3193212E+00  (-0.1087916E+00)
 number of electron     382.0000015 magnetization       0.0227808
 augmentation part       53.8361966 magnetization      -0.0651976

 Broyden mixing:
  rms(total) = 0.33965E+00    rms(broyden)= 0.33965E+00
  rms(prec ) = 0.36661E+00
  weight for this iteration     100.00

 eigenvalues of (default mixing * dielectric matrix)
  average eigenvalue GAMMA=   6.3412
 44.0527 14.3786  4.9756  3.3537  1.4289  1.4289  1.3608  1.1699  1.0640  1.0640
  0.9088  0.9088

 Free energy of the ion-electron system (eV)
  ---------------------------------------------------
  alpha Z        PSCENC =       462.75907254
  Ewald energy   TEWEN  =     89161.97584334
  -Hartree energ DENC   =   -122009.06566220
  -exchange      EXHF   =         0.00000000
  -V(xc)+E(xc)   XCENC  =      1315.56781277
  PAW double counting   =     45566.05025675   -45636.18270461
  entropy T*S    EENTRO =        -0.00000000
  eigenvalues    EBANDS =     -5667.86058560
  atomic energy  EATOM  =     36534.69703334
  Solvation  Ediel_sol  =         0.00000000
  ---------------------------------------------------
  free energy    TOTEN  =      -272.05893368 eV

  energy without entropy =     -272.05893368  energy(sigma->0) =     -272.05893368


--------------------------------------------------------------------------------------------------------




--------------------------------------- Iteration      1(  18)  ---------------------------------------


    POTLOK:  cpu time    0.2426: real time    0.2436
    SETDIJ:  cpu time    0.3553: real time    0.3563
     EDDAV:  cpu time    5.3374: real time    5.3544
       DOS:  cpu time    0.0004: real time    0.0004
    CHARGE:  cpu time    0.1271: real time    0.1275
    MIXING:  cpu time    0.0111: real time    0.0112
    --------------------------------------------
      LOOP:  cpu time    6.0739: real time    6.0933

 eigenvalue-minimisations  :  1336
 total energy-change (2. order) : 0.3653973E-02  (-0.3002959E-01)
 number of electron     382.0000015 magnetization       0.0202171
 augmentation part       53.9293049 magnetization       0.0145254

 Broyden mixing:
  rms(total) = 0.28537E+00    rms(broyden)= 0.28537E+00
  rms(prec ) = 0.31199E+00
  weight for this iteration     100.00

 eigenvalues of (default mixing * dielectric matrix)
  average eigenvalue GAMMA=   6.1286
 42.9673 15.9815  6.4929  3.3753  1.7785  1.3840  1.3840  1.2863  1.1045  1.1045
  0.9096  0.9514  0.9514

 Free energy of the ion-electron system (eV)
  ---------------------------------------------------
  alpha Z        PSCENC =       462.75907254
  Ewald energy   TEWEN  =     89161.97584334
  -Hartree energ DENC   =   -122000.95039881
  -exchange      EXHF   =         0.00000000
  -V(xc)+E(xc)   XCENC  =      1315.49578813
  PAW double counting   =     45638.76520116   -45708.55315510
  entropy T*S    EENTRO =        -0.00000000
  eigenvalues    EBANDS =     -5676.24466430
  atomic energy  EATOM  =     36534.69703334
  Solvation  Ediel_sol  =         0.00000000
  ---------------------------------------------------
  free energy    TOTEN  =      -272.05527971 eV

  energy without entropy =     -272.05527971  energy(sigma->0) =     -272.05527971


--------------------------------------------------------------------------------------------------------




--------------------------------------- Iteration      1(  19)  ---------------------------------------


    POTLOK:  cpu time    0.2429: real time    0.2439
    SETDIJ:  cpu time    0.3630: real time    0.3640
     EDDAV:  cpu time    5.2475: real time    5.2646
       DOS:  cpu time    0.0004: real time    0.0004
    CHARGE:  cpu time    0.1271: real time    0.1275
    MIXING:  cpu time    0.0114: real time    0.0114
    --------------------------------------------
      LOOP:  cpu time    5.9922: real time    6.0118

 eigenvalue-minimisations  :  1304
 total energy-change (2. order) : 0.6967333E-01  (-0.6228037E-02)
 number of electron     382.0000015 magnetization       0.0132282
 augmentation part       54.0481606 magnetization      -0.0093168

 Broyden mixing:
  rms(total) = 0.26257E+00    rms(broyden)= 0.26257E+00
  rms(prec ) = 0.27551E+00
  weight for this iteration     100.00

 eigenvalues of (default mixing * dielectric matrix)
  average eigenvalue GAMMA=   5.9322
 43.8532 16.7322  6.7139  3.5964  2.1725  1.6579  1.2644  1.1850  1.1850  1.0547
  1.0547  0.9338  0.8233  0.8233

 Free energy of the ion-electron system (eV)
  ---------------------------------------------------
  alpha Z        PSCENC =       462.75907254
  Ewald energy   TEWEN  =     89161.97584334
  -Hartree energ DENC   =   -121983.40471630
  -exchange      EXHF   =         0.00000000
  -V(xc)+E(xc)   XCENC  =      1315.34960671
  PAW double counting   =     45151.75978686   -45221.04413969
  entropy T*S    EENTRO =        -0.00000000
  eigenvalues    EBANDS =     -5694.07809317
  atomic energy  EATOM  =     36534.69703334
  Solvation  Ediel_sol  =         0.00000000
  ---------------------------------------------------
  free energy    TOTEN  =      -271.98560638 eV

  energy without entropy =     -271.98560638  energy(sigma->0) =     -271.98560638


--------------------------------------------------------------------------------------------------------




--------------------------------------- Iteration      1(  20)  ---------------------------------------


    POTLOK:  cpu time    0.2416: real time    0.2440
    SETDIJ:  cpu time    0.3600: real time    0.3610
     EDDAV:  cpu time    5.5220: real time    5.5394
       DOS:  cpu time    0.0004: real time    0.0004
    CHARGE:  cpu time    0.1266: real time    0.1271
    MIXING:  cpu time    0.0118: real time    0.0118
    --------------------------------------------
      LOOP:  cpu time    6.2625: real time    6.2837

 eigenvalue-minimisations  :  1408
 total energy-change (2. order) : 0.3633084E-01  (-0.4945107E-02)
 number of electron     382.0000015 magnetization       0.0224032
 augmentation part       54.1166757 magnetization       0.0809628

 Broyden mixing:
  rms(total) = 0.21502E+00    rms(broyden)= 0.21502E+00
  rms(prec ) = 0.22032E+00
  weight for this iteration     100.00

 eigenvalues of (default mixing * dielectric matrix)
  average eigenvalue GAMMA=   5.9158
 44.7377 18.6886  7.4517  3.7929  2.5387  1.5655  1.5655  1.2987  1.2438  1.2438
  0.9893  0.9893  0.9101  0.8603  0.8603

 Free energy of the ion-electron system (eV)
  ---------------------------------------------------
  alpha Z        PSCENC =       462.75907254
  Ewald energy   TEWEN  =     89161.97584334
  -Hartree energ DENC   =   -121977.37913732
  -exchange      EXHF   =         0.00000000
  -V(xc)+E(xc)   XCENC  =      1315.31123659
  PAW double counting   =     45313.02242207   -45381.78193087
  entropy T*S    EENTRO =        -0.00000000
  eigenvalues    EBANDS =     -5700.55381523
  atomic energy  EATOM  =     36534.69703334
  Solvation  Ediel_sol  =         0.00000000
  ---------------------------------------------------
  free energy    TOTEN  =      -271.94927554 eV

  energy without entropy =     -271.94927554  energy(sigma->0) =     -271.94927554


--------------------------------------------------------------------------------------------------------




--------------------------------------- Iteration      1(  21)  ---------------------------------------


    POTLOK:  cpu time    0.2437: real time    0.2447
    SETDIJ:  cpu time    0.3551: real time    0.3561
     EDDAV:  cpu time    4.9742: real time    4.9914
       DOS:  cpu time    0.0004: real time    0.0004
    CHARGE:  cpu time    0.1276: real time    0.1280
    MIXING:  cpu time    0.0120: real time    0.0121
    --------------------------------------------
      LOOP:  cpu time    5.7130: real time    5.7326

 eigenvalue-minimisations  :  1232
 total energy-change (2. order) :-0.2523103E-02  (-0.1559646E-01)
 number of electron     382.0000015 magnetization      -0.0049930
 augmentation part       54.0984293 magnetization       0.0858481

 Broyden mixing:
  rms(total) = 0.16927E+00    rms(broyden)= 0.16927E+00
  rms(prec ) = 0.17592E+00
  weight for this iteration     100.00

 eigenvalues of (default mixing * dielectric matrix)
  average eigenvalue GAMMA=   6.0567
 44.7363 20.4638  9.1938  6.0001  3.4103  2.0661  1.5713  1.3130  1.3130  1.2351
  1.0508  1.0508  0.9370  0.9370  0.8754  0.7528

 Free energy of the ion-electron system (eV)
  ---------------------------------------------------
  alpha Z        PSCENC =       462.75907254
  Ewald energy   TEWEN  =     89161.97584334
  -Hartree energ DENC   =   -121956.43085647
  -exchange      EXHF   =         0.00000000
  -V(xc)+E(xc)   XCENC  =      1315.39492284
  PAW double counting   =     45609.28158807   -45676.80598387
  entropy T*S    EENTRO =        -0.00000000
  eigenvalues    EBANDS =     -5722.82341843
  atomic energy  EATOM  =     36534.69703334
  Solvation  Ediel_sol  =         0.00000000
  ---------------------------------------------------
  free energy    TOTEN  =      -271.95179864 eV

  energy without entropy =     -271.95179864  energy(sigma->0) =     -271.95179864


--------------------------------------------------------------------------------------------------------




--------------------------------------- Iteration      1(  22)  ---------------------------------------


    POTLOK:  cpu time    0.2434: real time    0.2443
    SETDIJ:  cpu time    0.3590: real time    0.3600
     EDDAV:  cpu time    5.4702: real time    5.4887
       DOS:  cpu time    0.0005: real time    0.0005
    CHARGE:  cpu time    0.1279: real time    0.1283
    MIXING:  cpu time    0.0119: real time    0.0120
    --------------------------------------------
      LOOP:  cpu time    6.2128: real time    6.2337

 eigenvalue-minimisations  :  1392
 total energy-change (2. order) : 0.4305957E-02  (-0.5394592E-02)
 number of electron     382.0000015 magnetization       0.0076151
 augmentation part       54.1398905 magnetization      -0.0058227

 Broyden mixing:
  rms(total) = 0.13311E+00    rms(broyden)= 0.13310E+00
  rms(prec ) = 0.13998E+00
  weight for this iteration     100.00

 eigenvalues of (default mixing * dielectric matrix)
  average eigenvalue GAMMA=   5.9110
 44.0440 20.9946 10.8726  6.4682  3.6114  2.2801  1.5549  1.5549  1.2586  1.2011
  1.2011  0.9700  0.9700  0.9111  0.9084  0.9084  0.7783

 Free energy of the ion-electron system (eV)
  ---------------------------------------------------
  alpha Z        PSCENC =       462.75907254
  Ewald energy   TEWEN  =     89161.97584334
  -Hartree energ DENC   =   -121959.82813783
  -exchange      EXHF   =         0.00000000
  -V(xc)+E(xc)   XCENC  =      1315.41423909
  PAW double counting   =     45605.46835027   -45672.83766892
  entropy T*S    EENTRO =        -0.00000000
  eigenvalues    EBANDS =     -5719.59622452
  atomic energy  EATOM  =     36534.69703334
  Solvation  Ediel_sol  =         0.00000000
  ---------------------------------------------------
  free energy    TOTEN  =      -271.94749268 eV

  energy without entropy =     -271.94749268  energy(sigma->0) =     -271.94749268


--------------------------------------------------------------------------------------------------------




--------------------------------------- Iteration      1(  23)  ---------------------------------------


    POTLOK:  cpu time    0.2438: real time    0.2449
    SETDIJ:  cpu time    0.3547: real time    0.3556
     EDDAV:  cpu time    5.3674: real time    5.3854
       DOS:  cpu time    0.0004: real time    0.0004
    CHARGE:  cpu time    0.1274: real time    0.1278
    MIXING:  cpu time    0.0123: real time    0.0123
    --------------------------------------------
      LOOP:  cpu time    6.1059: real time    6.1264

 eigenvalue-minimisations  :  1360
 total energy-change (2. order) : 0.9575530E-02  (-0.1915796E-02)
 number of electron     382.0000015 magnetization       0.0425516
 augmentation part       54.2053860 magnetization      -0.0187590

 Broyden mixing:
  rms(total) = 0.11185E+00    rms(broyden)= 0.11185E+00
  rms(prec ) = 0.11617E+00
  weight for this iteration     100.00

 eigenvalues of (default mixing * dielectric matrix)
  average eigenvalue GAMMA=   5.8468
 44.1332 21.6695 12.8818  7.0568  3.6389  2.5390  1.5460  1.5460  1.3250  1.3250
  1.2361  1.0250  1.0250  0.8951  0.8951  0.8857  0.8857  0.7331

 Free energy of the ion-electron system (eV)
  ---------------------------------------------------
  alpha Z        PSCENC =       462.75907254
  Ewald energy   TEWEN  =     89161.97584334
  -Hartree energ DENC   =   -121963.01789161
  -exchange      EXHF   =         0.00000000
  -V(xc)+E(xc)   XCENC  =      1315.39858561
  PAW double counting   =     45476.42610618   -45543.79860679
  entropy T*S    EENTRO =        -0.00000000
  eigenvalues    EBANDS =     -5716.37805977
  atomic energy  EATOM  =     36534.69703334
  Solvation  Ediel_sol  =         0.00000000
  ---------------------------------------------------
  free energy    TOTEN  =      -271.93791715 eV

  energy without entropy =     -271.93791715  energy(sigma->0) =     -271.93791715


--------------------------------------------------------------------------------------------------------




--------------------------------------- Iteration      1(  24)  ---------------------------------------


    POTLOK:  cpu time    0.2440: real time    0.2450
    SETDIJ:  cpu time    0.3554: real time    0.3563
     EDDAV:  cpu time    5.6022: real time    5.6529
       DOS:  cpu time    0.0004: real time    0.0004
    CHARGE:  cpu time    0.1277: real time    0.1281
    MIXING:  cpu time    0.0124: real time    0.0125
    --------------------------------------------
      LOOP:  cpu time    6.3420: real time    6.3951

 eigenvalue-minimisations  :  1376
 total energy-change (2. order) : 0.2958588E-02  (-0.7616860E-03)
 number of electron     382.0000015 magnetization       0.0398924
 augmentation part       54.2340393 magnetization      -0.0344365

 Broyden mixing:
  rms(total) = 0.98392E-01    rms(broyden)= 0.98392E-01
  rms(prec ) = 0.10148E+00
  weight for this iteration     100.00

 eigenvalues of (default mixing * dielectric matrix)
  average eigenvalue GAMMA=   5.6993
 44.2563 22.0961 13.6309  7.2702  3.6543  2.5743  1.6373  1.4290  1.4290  1.4979
  1.2251  1.0952  1.0952  0.9555  0.9555  0.9308  0.9308  0.8737  0.7499

 Free energy of the ion-electron system (eV)
  ---------------------------------------------------
  alpha Z        PSCENC =       462.75907254
  Ewald energy   TEWEN  =     89161.97584334
  -Hartree energ DENC   =   -121966.51447813
  -exchange      EXHF   =         0.00000000
  -V(xc)+E(xc)   XCENC  =      1315.43677133
  PAW double counting   =     45474.29096381   -45541.60487099
  entropy T*S    EENTRO =        -0.00000000
  eigenvalues    EBANDS =     -5712.97529381
  atomic energy  EATOM  =     36534.69703334
  Solvation  Ediel_sol  =         0.00000000
  ---------------------------------------------------
  free energy    TOTEN  =      -271.93495857 eV

  energy without entropy =     -271.93495857  energy(sigma->0) =     -271.93495857


--------------------------------------------------------------------------------------------------------




--------------------------------------- Iteration      1(  25)  ---------------------------------------


    POTLOK:  cpu time    0.2438: real time    0.2447
    SETDIJ:  cpu time    0.3546: real time    0.3555
     EDDAV:  cpu time    5.3638: real time    5.3806
       DOS:  cpu time    0.0004: real time    0.0004
    CHARGE:  cpu time    0.1275: real time    0.1279
    MIXING:  cpu time    0.0133: real time    0.0134
    --------------------------------------------
      LOOP:  cpu time    6.1034: real time    6.1225

 eigenvalue-minimisations  :  1352
 total energy-change (2. order) :-0.8551171E-03  (-0.1125264E-02)
 number of electron     382.0000015 magnetization       0.0190413
 augmentation part       54.2109991 magnetization      -0.0221201

 Broyden mixing:
  rms(total) = 0.71914E-01    rms(broyden)= 0.71910E-01
  rms(prec ) = 0.74722E-01
  weight for this iteration     100.00

 eigenvalues of (default mixing * dielectric matrix)
  average eigenvalue GAMMA=   5.9514
 45.3305 26.2041 15.0401  7.6223  4.6369  2.8470  2.8470  1.6471  1.6471  1.4050
  1.1586  1.1586  1.1131  0.9156  0.9156  0.9898  0.9898  0.9290  0.8827  0.7476

 Free energy of the ion-electron system (eV)
  ---------------------------------------------------
  alpha Z        PSCENC =       462.75907254
  Ewald energy   TEWEN  =     89161.97584334
  -Hartree energ DENC   =   -121972.52563832
  -exchange      EXHF   =         0.00000000
  -V(xc)+E(xc)   XCENC  =      1315.57394924
  PAW double counting   =     45555.98774261   -45623.20904570
  entropy T*S    EENTRO =        -0.00000000
  eigenvalues    EBANDS =     -5707.19477074
  atomic energy  EATOM  =     36534.69703334
  Solvation  Ediel_sol  =         0.00000000
  ---------------------------------------------------
  free energy    TOTEN  =      -271.93581368 eV

  energy without entropy =     -271.93581368  energy(sigma->0) =     -271.93581368


[...]
   17        0.000   0.000   0.000   0.000
   18        0.000   0.000   0.000   0.000
   19        0.000   0.000   0.000   0.000
   20        0.000   0.000   0.000   0.000
   21       -0.000  -0.000   0.000  -0.000
   22        0.000   0.000   0.000   0.000
   23        0.000   0.000   0.000   0.000
   24        0.000   0.000   0.000   0.000
   25       -0.000  -0.000  -0.000  -0.000
   26       -0.000  -0.000  -0.000  -0.000
   27       -0.000  -0.000  -0.000  -0.000
   28       -0.000  -0.000  -0.000  -0.000
   29       -0.000  -0.000  -0.000  -0.000
   30       -0.000  -0.000  -0.000  -0.000
   31       -0.000  -0.000  -0.000  -0.000
   32       -0.000  -0.000  -0.000  -0.000
   33       -0.000  -0.000  -0.000  -0.000
   34       -0.000  -0.000  -0.000  -0.000
   35       -0.000  -0.000  -0.000  -0.000
   36       -0.000  -0.000  -0.000  -0.000
   37       -0.000  -0.000   0.000   0.000
   38       -0.000  -0.000  -0.000  -0.000
   39       -0.000  -0.000   0.000   0.000
   40       -0.000  -0.000   0.000   0.000
   41       -0.000  -0.000   0.000   0.000
   42       -0.000  -0.000   0.000   0.000
   43       -0.000  -0.000   0.000   0.000
--------------------------------------------------
tot         -0.000   0.000   0.000   0.000
 
    CHARGE:  cpu time    0.1267: real time    0.1271
    FORLOC:  cpu time    0.0307: real time    0.0308
    FORNL :  cpu time    1.9288: real time    1.9347
    STRESS:  cpu time    3.2660: real time    3.2779
    FORCOR:  cpu time    0.2612: real time    0.2620
    FORHAR:  cpu time    0.0579: real time    0.0585
    MIXING:  cpu time    0.0198: real time    0.0199
    OFIELD:  cpu time    0.0001: real time    0.0002

 ---------------------------------------------------------------------------------------------

         DFTD3 V3.0 Rev 1        
 IVDW         = 12
 DF pbe       
 parameters
 VDW_S6       =    1.0000
 VDW_S8       =    0.7875
 VDW_A1       =    0.4289
 VDW_A2       =    4.4407
 k1-k3        =   16.0000    1.3333   -4.0000
 VDW_RADIUS   =   50.2022 A
 VDW_CNRADIUS =   21.1671 A
 Edisp (eV)  -14.52458

 E6    (eV) :    -8.2195
 E8    (eV) :    -6.3050
 % E8        : 43.41
    FORVDW:  cpu time    0.1026: real time    0.1037

  FORCE on cell =-STRESS in cart. coord.  units (eV):
  Direction    XX          YY          ZZ          XY          YZ          ZX
  --------------------------------------------------------------------------------------
  Alpha Z   462.75907   462.75907   462.75907
  Ewald  108177.81282109080.02847************     0.28665     0.02901     0.18785
  Hartree115961.10447116794.14068************     0.09164     0.03959    -0.20683
  E(xc)   -1713.60236 -1713.28225 -1716.57090     0.00071    -0.00029    -0.02741
  Local  ************************231970.69037    -0.38689    -0.05633    -0.73971
  n-local  1293.38829  1299.34973  1343.41107     0.00971    -0.01041     0.66547
  augment  1228.23543  1230.93102  1225.87405     0.00326    -0.00391    -0.29240
  Kinetic  5595.38515  5607.72631  5581.19735     0.03400    -0.01888     0.16201
  Fock        0.00000     0.00000     0.00000     0.00000     0.00000     0.00000
  vdW       -14.44062   -14.47162    -5.65329     0.00010     0.00002    -0.00006
  -------------------------------------------------------------------------------------
  Total      -3.81474     1.33760   -11.00184     0.03918    -0.02121    -0.25107
  in kB      -2.91453     1.02195    -8.40561     0.02993    -0.01621    -0.19182
  external pressure =       -3.43 kB  Pullay stress =        0.00 kB


 VOLUME and BASIS-vectors are now :
 -----------------------------------------------------------------------------
  energy-cutoff  :      450.00
  volume of cell :     2097.04
      direct lattice vectors                 reciprocal lattice vectors
    11.007200000  0.000000000  0.000000000     0.090849626  0.000009197  0.000000000
    -0.000965000  9.532200000  0.000000000     0.000000000  0.104907576  0.000000000
     0.000000000  0.000000000 19.986500000     0.000000000  0.000000000  0.050033773

  length of vectors
    11.007200000  9.532200049 19.986500000     0.090849626  0.104907576  0.050033773


 FORCES acting on ions
    electron-ion (+dipol)            ewald-force                    non-local-force                 convergence-correction
 -----------------------------------------------------------------------------------------------
   -.167E+03 0.467E+02 -.746E+03   0.169E+03 -.464E+02 0.749E+03   -.186E+01 -.264E+00 -.363E+01   0.228E-02 -.134E-02 0.618E-02
   0.217E+03 0.526E-01 -.666E+03   -.218E+03 -.522E-01 0.668E+03   0.126E+01 -.179E-02 -.228E+01   -.474E-02 -.139E-04 0.631E-02
   -.155E+02 0.103E+02 0.111E+04   0.158E+02 -.103E+02 -.111E+04   -.242E+00 0.134E-01 0.441E+01   -.157E-02 -.195E-02 0.159E-03
   0.267E+02 0.187E-01 0.113E+04   -.265E+02 -.185E-01 -.113E+04   -.956E-01 0.991E-04 0.437E+01   0.492E-02 -.141E-04 -.170E-04
   0.471E+02 0.466E+02 -.569E+03   -.465E+02 -.465E+02 0.570E+03   -.430E+00 -.265E+00 -.880E+00   0.376E-02 0.841E-03 -.278E-02
   -.832E+02 0.285E-01 -.572E+03   0.835E+02 -.283E-01 0.572E+03   0.119E+00 -.148E-02 -.699E+00   -.235E-02 0.795E-05 -.122E-02
   0.133E+02 0.103E+02 0.116E+04   -.130E+02 -.103E+02 -.116E+04   -.236E+00 0.508E-02 0.440E+01   0.474E-02 -.353E-03 0.394E-02
   -.225E+02 0.136E-01 0.116E+04   0.228E+02 -.134E-01 -.116E+04   -.196E+00 0.664E-04 0.441E+01   -.601E-02 0.201E-04 0.444E-02
   -.167E+03 -.467E+02 -.746E+03   0.169E+03 0.464E+02 0.749E+03   -.186E+01 0.262E+00 -.363E+01   0.224E-02 0.130E-02 0.621E-02
   0.152E+03 -.148E+03 -.750E+03   -.152E+03 0.151E+03 0.754E+03   0.439E+00 -.167E+01 -.372E+01   -.459E-02 0.991E-04 0.505E-02
   -.155E+02 -.103E+02 0.111E+04   0.158E+02 0.103E+02 -.111E+04   -.243E+00 -.134E-01 0.441E+01   -.161E-02 0.191E-02 0.128E-03
   0.251E+02 -.124E+02 0.111E+04   -.248E+02 0.125E+02 -.111E+04   -.157E+00 -.456E-01 0.435E+01   0.283E-02 0.817E-03 -.527E-03
   0.471E+02 -.465E+02 -.569E+03   -.465E+02 0.464E+02 0.570E+03   -.430E+00 0.261E+00 -.879E+00   0.377E-02 -.804E-03 -.282E-02
   -.148E+03 -.149E+03 -.656E+03   0.150E+03 0.151E+03 0.658E+03   -.831E+00 -.145E+01 -.216E+01   0.353E-03 0.276E-03 0.450E-03
   0.133E+02 -.103E+02 0.116E+04   -.130E+02 0.103E+02 -.116E+04   -.236E+00 -.518E-02 0.440E+01   0.476E-02 0.397E-03 0.398E-02
   -.241E+02 -.124E+02 0.114E+04   0.244E+02 0.125E+02 -.114E+04   -.280E+00 -.744E-01 0.439E+01   -.615E-02 -.497E-03 0.189E-02
   -.550E+02 0.988E-02 -.831E+03   0.550E+02 -.981E-02 0.835E+03   -.388E-02 -.128E-02 -.481E+01   0.299E-02 0.439E-04 0.370E-02
   0.152E+03 0.148E+03 -.750E+03   -.152E+03 -.151E+03 0.754E+03   0.438E+00 0.166E+01 -.372E+01   -.464E-02 -.824E-04 0.501E-02
   -.135E+02 0.106E-01 0.109E+04   0.138E+02 -.105E-01 -.110E+04   -.170E+00 0.145E-03 0.442E+01   -.484E-03 0.440E-04 0.113E-03
   0.251E+02 0.125E+02 0.111E+04   -.248E+02 -.125E+02 -.111E+04   -.158E+00 0.456E-01 0.435E+01   0.278E-02 -.801E-03 -.488E-03
   0.159E+03 0.409E-01 -.653E+03   -.161E+03 -.406E-01 0.655E+03   0.146E+01 -.163E-02 -.210E+01   0.302E-02 -.258E-04 -.302E-03
   -.148E+03 0.149E+03 -.656E+03   0.150E+03 -.151E+03 0.658E+03   -.832E+00 0.145E+01 -.216E+01   0.391E-03 -.284E-03 0.488E-03
   0.153E+02 0.137E-01 0.114E+04   -.150E+02 -.135E-01 -.114E+04   -.204E+00 0.996E-04 0.440E+01   0.393E-02 -.353E-04 0.165E-02
   -.241E+02 0.124E+02 0.114E+04   0.244E+02 -.125E+02 -.114E+04   -.281E+00 0.743E-01 0.439E+01   -.610E-02 0.477E-03 0.185E-02
   -.521E+00 -.326E-02 0.498E+03   -.157E-01 0.282E-02 -.499E+03   0.182E+00 0.108E-02 0.154E+01   0.450E-02 -.968E-04 0.357E-01
   0.151E+03 0.672E+02 0.720E+03   -.151E+03 -.675E+02 -.721E+03   -.973E-02 0.111E+00 0.188E+01   0.137E-01 0.122E-02 0.121E-01
   -.160E+00 -.358E-02 0.848E+03   0.841E-02 0.307E-02 -.850E+03   -.999E-01 0.937E-03 0.233E+01   0.387E-02 0.552E-04 0.707E-02
   -.151E+03 0.673E+02 0.720E+03   0.151E+03 -.674E+02 -.721E+03   -.209E+00 0.574E-01 0.184E+01   -.172E-01 0.253E-02 0.147E-01
   -.356E+00 -.673E+02 0.423E+03   0.574E-02 0.675E+02 -.423E+03   0.910E-01 -.121E+00 0.118E+01   0.589E-03 0.170E-02 0.334E-01
   0.151E+03 -.672E+02 0.720E+03   -.151E+03 0.675E+02 -.721E+03   -.934E-02 -.108E+00 0.188E+01   0.138E-01 -.122E-02 0.121E-01
   0.514E-01 -.674E+02 0.772E+03   0.298E-01 0.675E+02 -.774E+03   -.258E+00 -.470E-01 0.203E+01   -.547E-03 -.574E-02 0.148E-04
   -.151E+03 -.674E+02 0.720E+03   0.151E+03 0.675E+02 -.721E+03   -.209E+00 -.547E-01 0.184E+01   -.173E-01 -.253E-02 0.147E-01
   -.346E+00 0.672E+02 0.423E+03   -.497E-02 -.674E+02 -.423E+03   0.913E-01 0.124E+00 0.118E+01   0.623E-03 -.159E-02 0.334E-01
   0.151E+03 -.271E-02 0.508E+03   -.151E+03 0.206E-02 -.508E+03   -.858E-01 0.105E-02 0.158E+01   0.752E-02 0.128E-04 0.162E-01
   0.621E-01 0.673E+02 0.772E+03   0.191E-01 -.674E+02 -.774E+03   -.257E+00 0.496E-01 0.203E+01   -.548E-03 0.567E-02 0.480E-04
   -.151E+03 -.345E-01 0.508E+03   0.151E+03 0.340E-01 -.508E+03   -.394E+00 0.102E-02 0.140E+01   -.123E-01 -.108E-04 0.206E-01
   0.250E+03 0.123E+03 -.186E+04   -.250E+03 -.123E+03 0.186E+04   0.156E+00 0.190E+00 -.220E+01   -.113E-01 -.132E-02 0.105E-01
   0.100E+00 -.309E-01 -.186E+04   0.357E-02 0.327E-01 0.186E+04   -.148E+00 -.232E-02 -.368E+01   0.437E-02 -.248E-05 0.110E-02
   -.250E+03 0.123E+03 -.186E+04   0.250E+03 -.123E+03 0.186E+04   -.431E+00 0.694E-01 -.220E+01   0.686E-02 -.138E-02 0.785E-02
   0.250E+03 -.123E+03 -.186E+04   -.250E+03 0.123E+03 0.186E+04   0.157E+00 -.191E+00 -.220E+01   -.113E-01 0.133E-02 0.105E-01
   0.939E-01 -.123E+03 -.186E+04   0.332E-01 0.123E+03 0.186E+04   -.204E+00 -.256E+00 -.286E+01   0.217E-02 0.276E-02 0.664E-02
   -.250E+03 -.123E+03 -.186E+04   0.250E+03 0.123E+03 0.186E+04   -.430E+00 -.705E-01 -.220E+01   0.683E-02 0.136E-02 0.784E-02
   0.134E+00 0.123E+03 -.186E+04   -.701E-02 -.123E+03 0.186E+04   -.204E+00 0.254E+00 -.286E+01   0.217E-02 -.277E-02 0.670E-02
 -----------------------------------------------------------------------------------------------
   0.729E+01 0.108E-01 -.249E+02   -.117E-12 -.171E-12 0.227E-11   -.729E+01 -.803E-02 0.246E+02   0.951E-03 -.150E-04 0.295E+00
 
 
 POSITION                                       TOTAL-FORCE (eV/Angst)
 -----------------------------------------------------------------------------------
      0.95009      1.55909     11.42528         0.546540      0.008103     -0.500407
      3.70173      3.14782     11.42528        -0.389265     -0.001535     -0.085428
      0.95020      1.55890      8.24303         0.078364     -0.002475     -0.011664
      3.70184      3.14763      8.24303         0.119757      0.000231      0.025330
      6.45369      1.55909     11.42528         0.102670     -0.086840     -0.000126
      9.20533      3.14782     11.42528         0.322737     -0.001345      0.059184
      6.45380      1.55890      8.24303         0.069624     -0.009999      0.114682
      9.20544      3.14763      8.24303         0.090752      0.000159      0.120018
      0.94977      4.73655     11.42528         0.546527     -0.010455     -0.500224
      3.70141      6.32519     11.42528        -0.089377      0.522819     -0.468654
      0.94988      4.73636      8.24303         0.078097      0.002468     -0.011968
      3.70152      6.32500      8.24303         0.111306     -0.037646     -0.029696
      6.45337      4.73655     11.42528         0.102878      0.083602      0.000249
      9.20501      6.32519     11.42528         0.475008      0.573285     -0.144107
      6.45348      4.73636      8.24303         0.069345      0.009937      0.114369
      9.20512      6.32500      8.24303         0.050196     -0.028831      0.081027
      0.94945      7.91392     11.42528         0.057073     -0.001219     -1.105862
      3.70109      9.50265     11.42528        -0.089670     -0.525680     -0.468684
      0.94956      7.91373      8.24303         0.068155      0.000211     -0.069966
      3.70120      9.50246      8.24303         0.111035      0.037646     -0.029955
      6.45305      7.91392     11.42528        -0.323036     -0.001440     -0.063742
      9.20469      9.50265     11.42528         0.474726     -0.575831     -0.144212
      6.45316      7.91373      8.24303         0.084007      0.000198      0.080684
      9.20480      9.50246      8.24303         0.049935      0.028707      0.080749
      1.86727      3.14772      9.78779        -0.350934      0.000480      0.795788
      4.61923      1.55899      9.78779        -0.251485     -0.132239      0.021103
      7.37087      3.14772      9.78779        -0.247553      0.000417     -0.177570
     10.12283      1.55899      9.78779        -0.010372     -0.064571      0.036706
      1.86695      6.32509      9.78779        -0.259061      0.073081      1.082673
      4.61891      4.73636      9.78779        -0.251009      0.134653      0.021131
      7.37055      6.32509      9.78779        -0.177031      0.059035     -0.084013
     10.12251      4.73636      9.78779        -0.009913      0.067052      0.036676
      1.86663      9.50246      9.78779        -0.258746     -0.070785      1.082584
      4.61859      7.91382      9.78779        -0.189942      0.000345      0.815061
      7.37023      9.50246      9.78779        -0.176659     -0.056792     -0.084130
     10.12219      7.91382      9.78779         0.069460      0.000437      0.819798
      4.61912      1.55918     12.43600         0.176613      0.154358     -0.277508
      7.37076      3.14782     12.43600        -0.039799     -0.000582      0.100788
     10.12272      1.55918     12.43600        -0.384930      0.150467     -0.300733
      4.61880      4.73655     12.43600         0.177061     -0.152457     -0.277794
      7.37044      6.32528     12.43600        -0.074605     -0.140611     -0.175367
     10.12240      4.73655     12.43600        -0.384423     -0.148745     -0.301036
      7.37012      9.50265     12.43600        -0.074057      0.142382     -0.175757
 -----------------------------------------------------------------------------------
    total drift:                               -0.004871      0.002799      0.017824


--------------------------------------------------------------------------------------------------------



  FREE ENERGIE OF THE ION-ELECTRON SYSTEM (eV)
  ---------------------------------------------------
  free  energy   TOTEN  =      -286.45919730 eV

  energy  without entropy=     -286.45919730  energy(sigma->0) =     -286.45919730
 


--------------------------------------------------------------------------------------------------------


    POTLOK:  cpu time    0.5960: real time    0.5978


--------------------------------------------------------------------------------------------------------


     LOOP+:  cpu time  259.6525: real time  260.5961
    4ORBIT:  cpu time    0.0000: real time    0.0000
 


 total charge     
 
# of ion       s       p       d       tot
------------------------------------------
    1        1.343   2.353   0.000   3.696
    2        1.323   2.379   0.000   3.701
    3        1.362   2.344   0.000   3.706
    4        1.362   2.345   0.000   3.707
    5        1.308   2.392   0.000   3.700
    6        1.308   2.390   0.000   3.698
    7        1.362   2.343   0.000   3.705
    8        1.362   2.343   0.000   3.705
    9        1.343   2.353   0.000   3.696
   10        1.343   2.354   0.000   3.697
   11        1.362   2.344   0.000   3.706
   12        1.362   2.346   0.000   3.707
   13        1.308   2.392   0.000   3.700
   14        1.326   2.375   0.000   3.701
   15        1.362   2.343   0.000   3.705
   16        1.362   2.344   0.000   3.706
   17        1.363   2.320   0.000   3.684
   18        1.343   2.354   0.000   3.697
   19        1.362   2.344   0.000   3.706
   20        1.362   2.346   0.000   3.708
   21        1.326   2.377   0.000   3.702
   22        1.326   2.375   0.000   3.701
   23        1.362   2.343   0.000   3.705
   24        1.362   2.344   0.000   3.706
   25        2.276   6.207   3.937  12.420
   26        2.276   6.209   3.976  12.461
   27        2.272   6.207   3.997  12.476
   28        2.275   6.210   3.978  12.463
   29        2.279   6.209   3.924  12.412
   30        2.276   6.209   3.976  12.461
   31        2.274   6.208   3.986  12.468
   32        2.275   6.210   3.978  12.463
   33        2.279   6.209   3.924  12.412
   34        2.277   6.206   3.937  12.420
   35        2.274   6.208   3.986  12.468
   36        2.277   6.207   3.937  12.421
   37        0.386   0.471   8.928   9.786
   38        0.391   0.486   8.913   9.790
   39        0.385   0.473   8.928   9.786
   40        0.386   0.471   8.928   9.786
   41        0.389   0.478   8.921   9.789
   42        0.385   0.473   8.928   9.786
   43        0.389   0.478   8.921   9.789
--------------------------------------------------
tot         62.326 134.374 110.004 306.704
 


 magnetization (x)
 
# of ion       s       p       d       tot
------------------------------------------
    1        0.000   0.000   0.000   0.000
    2        0.000   0.000   0.000   0.000
    3        0.000   0.000   0.000   0.000
    4        0.000   0.000   0.000   0.000
    5        0.000   0.000   0.000   0.000
    6        0.000   0.000   0.000   0.000
    7        0.000   0.000   0.000   0.000
    8        0.000   0.000   0.000   0.000
    9        0.000   0.000   0.000   0.000
   10        0.000   0.000   0.000   0.000
   11        0.000   0.000   0.000   0.000
   12        0.000   0.000   0.000   0.000
   13        0.000   0.000   0.000   0.000
   14        0.000   0.000   0.000   0.000
   15        0.000   0.000   0.000   0.000
   16        0.000   0.000   0.000   0.000
   17        0.000   0.000   0.000   0.000
   18        0.000   0.000   0.000   0.000
   19        0.000   0.000   0.000   0.000
   20        0.000   0.000   0.000   0.000
   21       -0.000  -0.000   0.000  -0.000
   22        0.000   0.000   0.000   0.000
   23        0.000   0.000   0.000   0.000
   24        0.000   0.000   0.000   0.000
   25       -0.000  -0.000  -0.000  -0.000
   26       -0.000  -0.000  -0.000  -0.000
   27       -0.000  -0.000  -0.000  -0.000
   28       -0.000  -0.000  -0.000  -0.000
   29       -0.000  -0.000  -0.000  -0.000
   30       -0.000  -0.000  -0.000  -0.000
   31       -0.000  -0.000  -0.000  -0.000
   32       -0.000  -0.000  -0.000  -0.000
   33       -0.000  -0.000  -0.000  -0.000
   34       -0.000  -0.000  -0.000  -0.000
   35       -0.000  -0.000  -0.000  -0.000
   36       -0.000  -0.000  -0.000  -0.000
   37       -0.000  -0.000   0.000   0.000
   38       -0.000  -0.000  -0.000  -0.000
   39       -0.000  -0.000   0.000   0.000
   40       -0.000  -0.000   0.000   0.000
   41       -0.000  -0.000   0.000   0.000
   42       -0.000  -0.000   0.000   0.000
   43       -0.000  -0.000   0.000   0.000
--------------------------------------------------
tot         -0.000   0.000   0.000   0.000
 

 total amount of memory used by VASP MPI-rank0    68622. kBytes
=======================================================================

   base      :      30000. kBytes
   nonl-proj :       4256. kBytes
   fftplans  :       7095. kBytes
   grid      :      19382. kBytes
   one-center:        124. kBytes
   wavefun   :       7765. kBytes
 
  
  
 General timing and accounting informations for this job:
 ========================================================
  
                  Total CPU time used (sec):      262.769
                            User time (sec):      261.438
                          System time (sec):        1.331
                         Elapsed time (sec):      263.865
  
                   Maximum memory used (kb):      132624.
                   Average memory used (kb):           0.
  
                          Minor page faults:       162639
                          Major page faults:            0
                 Voluntary context switches:         1052
