unknown system                          
           1
    11.007200    0.000000    0.000000
    -0.000965    9.532200    0.000000
     0.000000    0.000000   19.986500
   S    Mo   Ni
  24  12   7
Direct configuration=     1
   0.08633000  0.16356000  0.57165003
   0.33633000  0.33023000  0.57165003
   0.08634000  0.16354001  0.41242999
   0.33634001  0.33021000  0.41242999
   0.58633000  0.16356000  0.57165003
   0.83633000  0.33023000  0.57165003
   0.58634001  0.16354001  0.41242999
   0.83634001  0.33021000  0.41242999
   0.08633000  0.49689999  0.57165003
   0.33633000  0.66355997  0.57165003
   0.08634000  0.49688000  0.41242999
   0.33634001  0.66354001  0.41242999
   0.58633000  0.49689999  0.57165003
   0.83633000  0.66355997  0.57165003
   0.58634001  0.49688000  0.41242999
   0.83634001  0.66354001  0.41242999
   0.08633000  0.83023000  0.57165003
   0.33633000  0.99690002  0.57165003
   0.08634000  0.83020997  0.41242999
   0.33634001  0.99688000  0.41242999
   0.58633000  0.83023000  0.57165003
   0.83633000  0.99690002  0.57165003
   0.58634001  0.83020997  0.41242999
   0.83634001  0.99688000  0.41242999
   0.16967000  0.33022001  0.48971999
   0.41966999  0.16355000  0.48971999
   0.66966999  0.33022001  0.48971999
   0.91966999  0.16355000  0.48971999
   0.16967000  0.66355002  0.48971999
   0.41966999  0.49688000  0.48971999
   0.66966999  0.66355002  0.48971999
   0.91966999  0.49688000  0.48971999
   0.16967000  0.99688000  0.48971999
   0.41966999  0.83021998  0.48971999
   0.66966999  0.99688000  0.48971999
   0.91966999  0.83021998  0.48971999
   0.41966000  0.16357000  0.62221998
   0.66965997  0.33023000  0.62221998
   0.91965997  0.16357000  0.62221998
   0.41966000  0.49689999  0.62221998
   0.66965997  0.66356999  0.62221998
   0.91965997  0.49689999  0.62221998
   0.66965997  0.99690002  0.62221998
