       N       E                     dE             d eps       ncg     rms          rms(c)
DAV:   1     0.360981436862E+04    0.36098E+04   -0.17110E+05  1232   0.115E+03
DAV:   2     0.758710694871E+02   -0.35339E+04   -0.33979E+04  1200   0.335E+02
DAV:   3    -0.265458480403E+03   -0.34133E+03   -0.33463E+03  1192   0.112E+02
DAV:   4    -0.279259400384E+03   -0.13801E+02   -0.13525E+02  1224   0.231E+01
DAV:   5    -0.279789687260E+03   -0.53029E+00   -0.52703E+00  1312   0.429E+00    0.920E+01
DAV:   6    -0.286478838357E+03   -0.66892E+01   -0.10342E+00  1328   0.339E+00    0.849E+01
DAV:   7    -0.282877178177E+03    0.36017E+01   -0.16818E+00  1280   0.380E+00    0.780E+01
DAV:   8    -0.275003293991E+03    0.78739E+01   -0.43322E+01  1304   0.194E+01    0.434E+01
DAV:   9    -0.276113529190E+03   -0.11102E+01   -0.89819E+00  1408   0.107E+01    0.345E+01
DAV:  10    -0.275756760435E+03    0.35677E+00   -0.24253E+00  1432   0.768E+00    0.291E+01
DAV:  11    -0.274569421562E+03    0.11873E+01   -0.26727E+00  1456   0.863E+00    0.230E+01
DAV:  12    -0.272780700903E+03    0.17887E+01   -0.42772E+00  1376   0.721E+00    0.160E+01
DAV:  13    -0.272532771665E+03    0.24793E+00   -0.36665E+00  1408   0.936E+00    0.928E+00
DAV:  14    -0.272676304872E+03   -0.14353E+00   -0.14700E+00  1464   0.515E+00    0.612E+00
DAV:  15    -0.272370324631E+03    0.30598E+00   -0.30180E-01  1376   0.159E+00    0.554E+00
DAV:  16    -0.271866408783E+03    0.50392E+00   -0.53711E-01  1336   0.192E+00    0.446E+00
DAV:  17    -0.271564456385E+03    0.30195E+00   -0.99794E-01  1288   0.219E+00    0.339E+00
DAV:  18    -0.271541138310E+03    0.23318E-01   -0.29162E-01  1400   0.156E+00    0.280E+00
DAV:  19    -0.271478154223E+03    0.62984E-01   -0.66525E-02  1336   0.732E-01    0.260E+00
DAV:  20    -0.271445901238E+03    0.32253E-01   -0.54382E-02  1376   0.908E-01    0.211E+00
DAV:  21    -0.271454384320E+03   -0.84831E-02   -0.12100E-01  1224   0.827E-01    0.169E+00
DAV:  22    -0.271445240692E+03    0.91436E-02   -0.43388E-02  1384   0.897E-01    0.134E+00
DAV:  23    -0.271439730392E+03    0.55103E-02   -0.19210E-02  1352   0.502E-01    0.111E+00
DAV:  24    -0.271436612218E+03    0.31182E-02   -0.60882E-03  1360   0.289E-01    0.950E-01
DAV:  25    -0.271438501254E+03   -0.18890E-02   -0.14190E-02  1416   0.599E-01    0.710E-01
DAV:  26    -0.271438899960E+03   -0.39871E-03   -0.11274E-02  1344   0.357E-01    0.526E-01
DAV:  27    -0.271438755441E+03    0.14452E-03   -0.17630E-03  1192   0.137E-01    0.486E-01
DAV:  28    -0.271439099342E+03   -0.34390E-03   -0.68617E-04  1344   0.136E-01    0.431E-01
DAV:  29    -0.271438730426E+03    0.36892E-03   -0.10918E-03  1368   0.155E-01    0.360E-01
DAV:  30    -0.271437679191E+03    0.10512E-02   -0.25307E-03  1288   0.150E-01    0.295E-01
DAV:  31    -0.271437214474E+03    0.46472E-03   -0.18826E-03  1352   0.119E-01    0.218E-01
DAV:  32    -0.271437206861E+03    0.76131E-05   -0.50767E-04  1368   0.103E-01    0.178E-01
DAV:  33    -0.271437078742E+03    0.12812E-03   -0.34622E-04  1376   0.769E-02    0.162E-01
DAV:  34    -0.271436990218E+03    0.88524E-04   -0.27933E-04  1344   0.573E-02    0.141E-01
DAV:  35    -0.271436962500E+03    0.27718E-04   -0.10477E-04  1304   0.382E-02    0.111E-01
DAV:  36    -0.271436922458E+03    0.40042E-04   -0.10097E-04  1408   0.464E-02    0.102E-01
DAV:  37    -0.271436928627E+03   -0.61692E-05   -0.83693E-05  1296   0.286E-02    0.912E-02
DAV:  38    -0.271436933156E+03   -0.45288E-05   -0.31289E-05  1208   0.217E-02    0.678E-02
DAV:  39    -0.271436930324E+03    0.28317E-05   -0.76473E-06  1144   0.115E-02    0.593E-02
DAV:  40    -0.271436928418E+03    0.19057E-05   -0.35470E-06   856   0.854E-03    0.524E-02
DAV:  41    -0.271436921525E+03    0.68930E-05   -0.11659E-05  1272   0.117E-02    0.374E-02
DAV:  42    -0.271436918192E+03    0.33329E-05   -0.71451E-06  1140   0.113E-02    0.304E-02
DAV:  43    -0.271436918461E+03   -0.26893E-06   -0.57416E-06  1080   0.102E-02
   1 F= -.28597488E+03 E0= -.28597488E+03  d E =-.894008E-34  mag=    -0.0002
