 vasp.5.4.4.18Apr17-6-g9f103f2a35 (build Aug 21 2024 10:56:42) complex          
  
 executed on             LinuxIFC date 2026.06.14  17:20:30
 running on   48 total cores
 distrk:  each k-point on   48 cores,    1 groups
 distr:  one band on NCORES_PER_BAND=  12 cores,    4 groups


--------------------------------------------------------------------------------------------------------


 INCAR:
 POTCAR:    PAW_PBE S 06Sep2000                   
 POTCAR:    PAW_PBE Mo_sv 02Feb2006               
 POTCAR:    PAW_PBE Ni 02Aug2007                  
 POTCAR:    PAW_PBE S 06Sep2000                   
   VRHFIN =S : s2p4                                                             
   LEXCH  = PE                                                                  
   EATOM  =   276.8230 eV,   20.3459 Ry                                         
                                                                                
   TITEL  = PAW_PBE S 06Sep2000                                                 
   LULTRA =        F    use ultrasoft PP ?                                      
   IUNSCR =        1    unscreen: 0-lin 1-nonlin 2-no                           
   RPACOR =    1.500    partial core radius                                     
   POMASS =   32.066; ZVAL   =    6.000    mass and valenz                      
   RCORE  =    1.900    outmost cutoff radius                                   
   RWIGS  =    2.200; RWIGS  =    1.164    wigner-seitz radius (au A)           
   ENMAX  =  258.689; ENMIN  =  194.016 eV                                      
   ICORE  =        2    local potential                                         
   LCOR   =        T    correct aug charges                                     
   LPAW   =        T    paw PP                                                  
   EAUG   =  335.092                                                            
   DEXC   =    0.000                                                            
   RMAX   =    1.942    core radius for proj-oper                               
   RAUG   =    1.300    factor for augmentation sphere                          
   RDEP   =    1.954    radius for radial grids                                 
   RDEPT  =    1.744    core radius for aug-charge                              
                                                                                
   Atomic configuration                                                         
    6 entries                                                                   
     n  l   j            E        occ.                                          
     1  0  0.50     -2405.8406   2.0000                                         
     2  0  0.50      -211.7007   2.0000                                         
     2  1  1.50      -156.4958   6.0000                                         
     3  0  0.50       -17.2562   2.0000                                         
     3  1  0.50        -7.0085   4.0000                                         
     3  2  1.50        -6.8029   0.0000                                         
   Description                                                                  
     l       E           TYP  RCUT    TYP  RCUT                                 
     0    -17.2561641     23  1.900                                             
     0    -15.8743224     23  1.900                                             
     1     -7.0085400     23  1.900                                             
     1     -2.7779785     23  1.900                                             
     2     -6.8029130     23  1.900                                             
  local pseudopotential read in
  partial core-charges read in
  partial kinetic energy density read in
  atomic valenz-charges read in
  non local Contribution for L=           0  read in
    real space projection operators read in
  non local Contribution for L=           0  read in
    real space projection operators read in
  non local Contribution for L=           1  read in
    real space projection operators read in
  non local Contribution for L=           1  read in
    real space projection operators read in
    PAW grid and wavefunctions read in
 
   number of l-projection  operators is LMAX  =           4
   number of lm-projection operators is LMMAX =           8
 
 POTCAR:    PAW_PBE Mo_sv 02Feb2006               
   VRHFIN =Mo: 4p5s4d                                                           
   LEXCH  = PE                                                                  
   EATOM  =  1862.2866 eV,  136.8742 Ry                                         
                                                                                
   TITEL  = PAW_PBE Mo_sv 02Feb2006                                             
   LULTRA =        F    use ultrasoft PP ?                                      
   IUNSCR =        1    unscreen: 0-lin 1-nonlin 2-no                           
   RPACOR =    2.200    partial core radius                                     
   POMASS =   95.940; ZVAL   =   14.000    mass and valenz                      
   RCORE  =    2.500    outmost cutoff radius                                   
   RWIGS  =    2.750; RWIGS  =    1.455    wigner-seitz radius (au A)           
   ENMAX  =  242.676; ENMIN  =  182.007 eV                                      
   ICORE  =        3    local potential                                         
   LCOR   =        T    correct aug charges                                     
   LPAW   =        T    paw PP                                                  
   EAUG   =  446.014                                                            
   DEXC   =    0.000                                                            
   RMAX   =    2.563    core radius for proj-oper                               
   RAUG   =    1.300    factor for augmentation sphere                          
   RDEP   =    2.641    radius for radial grids                                 
   RDEPT  =    2.031    core radius for aug-charge                              
                                                                                
   Atomic configuration                                                         
   11 entries                                                                   
     n  l   j            E        occ.                                          
     1  0  0.50    -19819.0341   2.0000                                         
     2  0  0.50     -2799.0127   2.0000                                         
     2  1  1.50     -2502.0276   6.0000                                         
     3  0  0.50      -476.4449   2.0000                                         
     3  1  1.50      -379.1496   6.0000                                         
     3  2  2.50      -220.9367  10.0000                                         
     4  0  0.50       -64.3378   2.0000                                         
     5  0  0.50        -4.0862   1.0000                                         
     4  1  1.50       -38.4773   6.0000                                         
     4  2  2.50        -3.7535   5.0000                                         
     4  3  2.50        -1.3606   0.0000                                         
   Description                                                                  
     l       E           TYP  RCUT    TYP  RCUT                                 
     0    -64.3377829     23  2.100                                             
     0     -4.0861640     23  2.400                                             
     1    -38.4772993     23  2.100                                             
     1     13.6058260     23  2.100                                             
     2     -3.7534941     23  2.400                                             
     2     -5.1140767     23  2.400                                             
     3     -4.0817478     23  2.500                                             
  local pseudopotential read in
  partial core-charges read in
  partial kinetic energy density read in
  atomic valenz-charges read in
  non local Contribution for L=           0  read in
    real space projection operators read in
  non local Contribution for L=           0  read in
    real space projection operators read in
  non local Contribution for L=           1  read in
    real space projection operators read in
  non local Contribution for L=           1  read in
    real space projection operators read in
  non local Contribution for L=           2  read in
    real space projection operators read in
  non local Contribution for L=           2  read in
    real space projection operators read in
    PAW grid and wavefunctions read in
 
   number of l-projection  operators is LMAX  =           6
   number of lm-projection operators is LMMAX =          18
 
 POTCAR:    PAW_PBE Ni 02Aug2007                  
   VRHFIN =Ni:                                                                  
   LEXCH  = PE                                                                  
   EATOM  =  1077.6739 eV,   79.2068 Ry                                         
                                                                                
   TITEL  = PAW_PBE Ni 02Aug2007                                                
   LULTRA =        F    use ultrasoft PP ?                                      
   IUNSCR =        1    unscreen: 0-lin 1-nonlin 2-no                           
   RPACOR =    2.000    partial core radius                                     
   POMASS =   58.690; ZVAL   =   10.000    mass and valenz                      
   RCORE  =    2.300    outmost cutoff radius                                   
   RWIGS  =    2.430; RWIGS  =    1.286    wigner-seitz radius (au A)           
   ENMAX  =  269.532; ENMIN  =  202.149 eV                                      
   RCLOC  =    1.201    cutoff for local pot                                    
   LCOR   =        T    correct aug charges                                     
   LPAW   =        T    paw PP                                                  
   EAUG   =  544.565                                                            
   DEXC   =    0.000                                                            
   RMAX   =    2.357    core radius for proj-oper                               
   RAUG   =    1.300    factor for augmentation sphere                          
   RDEP   =    2.390    radius for radial grids                                 
   RDEPT  =    1.838    core radius for aug-charge                              
                                                                                
   Atomic configuration                                                         
    9 entries                                                                   
     n  l   j            E        occ.                                          
     1  0  0.50     -8206.4253   2.0000                                         
     2  0  0.50      -976.1748   2.0000                                         
     2  1  1.50      -839.0571   6.0000                                         
     3  0  0.50      -105.9991   2.0000                                         
     3  1  1.50       -66.4603   6.0000                                         
     3  2  2.50        -4.6458   9.0000                                         
     4  0  0.50        -4.4926   1.0000                                         
     4  1  1.50        -4.0817   0.0000                                         
     4  3  2.50        -1.3606   0.0000                                         
   Description                                                                  
     l       E           TYP  RCUT    TYP  RCUT                                 
     2     -4.6457903     23  2.300                                             
     2     -6.0063729     23  2.300                                             
     0     -4.4925590     23  2.300                                             
     0      5.0102601     23  2.300                                             
     1     -2.7211652     23  2.300                                             
     1     16.5183231     23  2.300                                             
  local pseudopotential read in
  partial core-charges read in
  partial kinetic energy density read in
  atomic valenz-charges read in
  non local Contribution for L=           2  read in
    real space projection operators read in
  non local Contribution for L=           2  read in
    real space projection operators read in
  non local Contribution for L=           0  read in
    real space projection operators read in
  non local Contribution for L=           0  read in
    real space projection operators read in
  non local Contribution for L=           1  read in
    real space projection operators read in
  non local Contribution for L=           1  read in
    real space projection operators read in
    PAW grid and wavefunctions read in
 
   number of l-projection  operators is LMAX  =           6
   number of lm-projection operators is LMMAX =          18
 

 ----------------------------------------------------------------------------- 
|                                                                             |
|  ADVICE TO THIS USER RUNNING 'VASP/VAMP'   (HEAR YOUR MASTER'S VOICE ...):  |
|                                                                             |
|      You have a (more or less) 'large supercell' and for larger cells       |
|      it might be more efficient to use real space projection opertators     |
|      So try LREAL= Auto  in the INCAR   file.                               |
|      Mind:          For very  accurate calculation you might also keep the  |
|      reciprocal projection scheme          (i.e. LREAL=.FALSE.)             |
|                                                                             |
 ----------------------------------------------------------------------------- 

  PAW_PBE S 06Sep2000                   :
 energy of atom  1       EATOM= -276.8230
 kinetic energy error for atom=    0.0033 (will be added to EATOM!!)
  PAW_PBE Mo_sv 02Feb2006               :
 energy of atom  2       EATOM=-1862.2866
 kinetic energy error for atom=    0.0088 (will be added to EATOM!!)
  PAW_PBE Ni 02Aug2007                  :
 energy of atom  3       EATOM=-1077.6739
 kinetic energy error for atom=    0.0038 (will be added to EATOM!!)
 
 
 POSCAR: unknown system                          
  positions in direct lattice
  No initial velocities read in
 exchange correlation table for  LEXCH =        8
   RHO(1)=    0.500       N(1)  =     2000
   RHO(2)=  100.500       N(2)  =     4000
 


--------------------------------------------------------------------------------------------------------


 ion  position               nearest neighbor table
   1  0.087  0.160  0.572-  39 2.13  28 2.43  33 2.47  25 2.49
   2  0.333  0.331  0.574-  40 2.06  37 2.08  25 2.44  26 2.49  30 2.50
   3  0.085  0.164  0.412-  28 2.38  25 2.41  33 2.43
   4  0.335  0.333  0.412-  25 2.35  30 2.39  26 2.42
   5  0.586  0.165  0.571-  37 2.06  43 2.08  38 2.10  27 2.43  26 2.43  35 2.45
   6  0.837  0.332  0.573-  38 2.06  39 2.08  42 2.08  32 2.44  27 2.47  28 2.49
   7  0.585  0.163  0.412-  26 2.39  35 2.41  27 2.41
   8  0.834  0.333  0.413-  27 2.38  32 2.39  28 2.45
   9  0.085  0.497  0.572-  42 2.07  32 2.46  29 2.49  25 2.50
  10  0.334  0.661  0.573-  40 2.05  29 2.43  30 2.48  34 2.50
  11  0.086  0.498  0.412-  29 2.41  32 2.42  25 2.42
  12  0.337  0.660  0.413-  29 2.37  30 2.38  34 2.40
  13  0.586  0.499  0.571-  41 2.09  40 2.12  38 2.16  31 2.42  30 2.43  27 2.45
  14  0.834  0.663  0.574-  41 2.05  42 2.06  32 2.47  31 2.48  36 2.55
  15  0.584  0.500  0.414-  30 2.35  31 2.36  27 2.43
  16  0.840  0.665  0.413-  36 2.36  32 2.39  31 2.45
  17  0.088  0.828  0.570-  29 2.42  33 2.44  36 2.47
  18  0.338  0.998  0.570-  37 2.06  34 2.44  26 2.45  33 2.46
  19  0.084  0.824  0.412-  36 2.35  29 2.38  33 2.43
  20  0.339  1.000  0.413-  34 2.38  33 2.40  26 2.40
  21  0.585  0.830  0.571-  43 2.10  41 2.12  35 2.43  31 2.44  34 2.46
  22  0.838  0.001  0.571-  39 2.05  43 2.10  28 2.41  35 2.48  36 2.48
  23  0.584  0.827  0.413-  34 2.38  31 2.38  35 2.42
  24  0.839  0.994  0.414-  36 2.31  28 2.40  35 2.43
  25  0.174  0.329  0.489-   4 2.35   3 2.41  11 2.42   2 2.44   1 2.49   9 2.50  26 3.13  30 3.14
                            33 3.19  29 3.19  28 3.19  32 3.24
  26  0.422  0.167  0.490-   7 2.39  20 2.40   4 2.42   5 2.43  18 2.45   2 2.49  37 2.59  30 3.13
                            25 3.13  27 3.13  35 3.15  34 3.20  33 3.22
  27  0.669  0.329  0.491-   8 2.38   7 2.41  15 2.43   5 2.43  13 2.45   6 2.47  38 2.64  26 3.13
                            30 3.16  32 3.17  35 3.17  31 3.18  28 3.21
  28  0.922  0.162  0.491-   3 2.38  24 2.40  22 2.41   1 2.43   8 2.45   6 2.49  39 2.62  36 3.14
                            33 3.17  25 3.19  32 3.20  27 3.21  35 3.22
  29  0.173  0.664  0.490-  12 2.37  19 2.38  11 2.41  17 2.42  10 2.43   9 2.49  34 3.14  33 3.15
                            30 3.17  25 3.19  36 3.21  32 3.22
  30  0.420  0.495  0.490-  15 2.35  12 2.38   4 2.39  13 2.43  10 2.48   2 2.50  40 2.63  26 3.13
                            25 3.14  31 3.15  27 3.16  29 3.17  34 3.20
  31  0.668  0.663  0.490-  15 2.36  23 2.38  13 2.42  21 2.44  16 2.45  14 2.48  41 2.65  30 3.15
                            32 3.17  34 3.18  35 3.18  27 3.18  36 3.22
  32  0.918  0.498  0.491-   8 2.39  16 2.39  11 2.42   6 2.44   9 2.46  14 2.47  42 2.63  27 3.17
                            31 3.17  36 3.20  28 3.20  29 3.22  25 3.24
  33  0.171  0.994  0.489-  20 2.40   3 2.43  19 2.43  17 2.44  18 2.46   1 2.47  34 3.14  29 3.15
                            36 3.16  28 3.17  25 3.19  26 3.22
  34  0.418  0.831  0.490-  23 2.38  20 2.38  12 2.40  18 2.44  21 2.46  10 2.50  29 3.14  33 3.14
                            35 3.16  31 3.18  30 3.20  26 3.20
  35  0.667  0.996  0.490-   7 2.41  23 2.42  21 2.43  24 2.43   5 2.45  22 2.48  43 2.60  26 3.15
                            34 3.16  27 3.17  31 3.18  36 3.19  28 3.22
  36  0.920  0.833  0.488-  24 2.31  19 2.35  16 2.36  17 2.47  22 2.48  14 2.55  28 3.14  33 3.16
                            35 3.19  32 3.20  29 3.21  31 3.22
  37  0.420  0.162  0.620-  18 2.06   5 2.06   2 2.08  26 2.59
  38  0.673  0.328  0.623-   6 2.06   5 2.10  13 2.16  27 2.64
  39  0.917  0.164  0.622-  22 2.05   6 2.08   1 2.13  28 2.62
  40  0.416  0.497  0.621-  10 2.05   2 2.06  13 2.12  30 2.63
  41  0.670  0.662  0.623-  14 2.05  13 2.09  21 2.12  31 2.65
  42  0.920  0.499  0.622-  14 2.06   9 2.07   6 2.08  32 2.63
  43  0.669  0.999  0.620-   5 2.08  21 2.10  22 2.10  35 2.60
 

IMPORTANT INFORMATION: All symmetrisations will be switched off!
NOSYMM: (Re-)initialisation of all symmetry stuff for point group C_1.

 
 
 KPOINTS: Gamma-point only                        

Automatic generation of k-mesh.
Space group operators:
 irot       det(A)        alpha          n_x          n_y          n_z        tau_x        tau_y        tau_z
    1     1.000000     0.000001     1.000000     0.000000     0.000000     0.000000     0.000000     0.000000
 
 Subroutine IBZKPT returns following result:
 ===========================================
 
 Found      1 irreducible k-points:
 
 Following reciprocal coordinates:
            Coordinates               Weight
  0.000000  0.000000  0.000000      1.000000
 
 Following cartesian coordinates:
            Coordinates               Weight
  0.000000  0.000000  0.000000      1.000000
 


--------------------------------------------------------------------------------------------------------




 Dimension of arrays:
   k-points           NKPTS =      1   k-points in BZ     NKDIM =      1   number of bands    NBANDS=    252
   number of dos      NEDOS =    301   number of ions     NIONS =     43
   non local maximal  LDIM  =      6   non local SUM 2l+1 LMDIM =     18
   total plane-waves  NPLWV = 784000
   max r-space proj   IRMAX =      1   max aug-charges    IRDMAX=  16547
   dimension x,y,z NGX =    80 NGY =   70 NGZ =  140
   dimension x,y,z NGXF=   160 NGYF=  140 NGZF=  280
   support grid    NGXF=   160 NGYF=  140 NGZF=  280
   ions per type =              24  12   7
   NGX,Y,Z   is equivalent  to a cutoff of  12.08, 12.21, 11.65 a.u.
   NGXF,Y,Z  is equivalent  to a cutoff of  24.17, 24.42, 23.29 a.u.

 SYSTEM =  unknown system                          
 POSCAR =  unknown system                          

 Startparameter for this run:
   NWRITE =      2    write-flag & timer
   PREC   = a         normal or accurate (medium, high low for compatibility)
   ISTART =      0    job   : 0-new  1-cont  2-samecut
   ICHARG =      2    charge: 1-file 2-atom 10-const
   ISPIN  =      2    spin polarized calculation?
   LNONCOLLINEAR =      F non collinear calculations
   LSORBIT =      F    spin-orbit coupling
   INIWAV =      1    electr: 0-lowe 1-rand  2-diag
   LASPH  =      T    aspherical Exc in radial PAW
   METAGGA=      F    non-selfconsistent MetaGGA calc.

 Electronic Relaxation 1
   ENCUT  =  450.0 eV  33.07 Ry    5.75 a.u.  19.04 16.49 34.57*2*pi/ulx,y,z
   ENINI  =  450.0     initial cutoff
   ENAUG  =  544.6 eV  augmentation charge cutoff
   NELM   =    200;   NELMIN=  2; NELMDL= -5     # of ELM steps 
   EDIFF  = 0.1E-05   stopping-criterion for ELM
   LREAL  =      F    real-space projection
   NLSPLINE    = F    spline interpolate recip. space projectors
   LCOMPAT=      F    compatible to vasp.4.4
   GGA_COMPAT  = T    GGA compatible to vasp.4.4-vasp.4.6
   LMAXPAW     = -100 max onsite density
   LMAXMIX     =    4 max onsite mixed and CHGCAR
   VOSKOWN=      0    Vosko Wilk Nusair interpolation
   ROPT   =    0.00000   0.00000   0.00000
 Ionic relaxation
   EDIFFG = -.1E-02   stopping-criterion for IOM
   NSW    =      0    number of steps for IOM
   NBLOCK =      1;   KBLOCK =      1    inner block; outer block 
   IBRION =     -1    ionic relax: 0-MD 1-quasi-New 2-CG
   NFREE  =      0    steps in history (QN), initial steepest desc. (CG)
   ISIF   =      2    stress and relaxation
   IWAVPR =     10    prediction:  0-non 1-charg 2-wave 3-comb
   ISYM   =     -1    0-nonsym 1-usesym 2-fastsym
   LCORR  =      T    Harris-Foulkes like correction to forces

   POTIM  = 0.5000    time-step for ionic-motion
   TEIN   =    0.0    initial temperature
   TEBEG  =    0.0;   TEEND  =   0.0 temperature during run
   SMASS  =  -3.00    Nose mass-parameter (am)
   estimated Nose-frequenzy (Omega)   =  0.10E-29 period in steps =****** mass=  -0.277E-26a.u.
   SCALEE = 1.0000    scale energy and forces
   NPACO  =    256;   APACO  = 16.0  distance and # of slots for P.C.
   PSTRESS=    0.0 pullay stress

  Mass of Ions in am
   POMASS =  32.07 95.94 58.69
  Ionic Valenz
   ZVAL   =   6.00 14.00 10.00
  Atomic Wigner-Seitz radii
   RWIGS  =  -1.00 -1.00 -1.00
  virtual crystal weights 
   VCA    =   1.00  1.00  1.00
   NELECT =     382.0000    total number of electrons
   NUPDOWN=      -1.0000    fix difference up-down

 DOS related values:
   EMIN   =  10.00;   EMAX   =-10.00  energy-range for DOS
   EFERMI =   0.00
   ISMEAR =     0;   SIGMA  =   0.01  broadening in eV -4-tet -1-fermi 0-gaus

 Electronic relaxation 2 (details)
   IALGO  =     38    algorithm
   LDIAG  =      T    sub-space diagonalisation (order eigenvalues)
   LSUBROT=      F    optimize rotation matrix (better conditioning)
   TURBO    =      0    0=normal 1=particle mesh
   IRESTART =      0    0=no restart 2=restart with 2 vectors
   NREBOOT  =      0    no. of reboots
   NMIN     =      0    reboot dimension
   EREF     =   0.00    reference energy to select bands
   IMIX   =      4    mixing-type and parameters
     AMIX     =   0.02;   BMIX     =  0.00
     AMIX_MAG =   0.80;   BMIX_MAG =  0.00
     AMIN     =   0.02
     WC   =   100.;   INIMIX=   1;  MIXPRE=   1;  MAXMIX= -45

 Intra band minimization:
   WEIMIN = 0.0000     energy-eigenvalue tresh-hold
   EBREAK =  0.99E-09  absolut break condition
   DEPER  =   0.30     relativ break condition  

   TIME   =   0.40     timestep for ELM

  volume/ion in A,a.u.               =      48.77       329.11
  Fermi-wavevector in a.u.,A,eV,Ry     =   0.928026  1.753716 11.717788  0.861233
  Thomas-Fermi vector in A             =   2.054159
 
 Write flags
   LWAVE        =      F    write WAVECAR
   LDOWNSAMPLE  =      F    k-point downsampling of WAVECAR
   LCHARG       =      F    write CHGCAR
   LVTOT        =      F    write LOCPOT, total local potential
   LVHAR        =      F    write LOCPOT, Hartree potential only
   LELF         =      F    write electronic localiz. function (ELF)
   LORBIT       =     11    0 simple, 1 ext, 2 COOP (PROOUT), +10 PAW based schemes


 Dipole corrections
   LMONO  =      F    monopole corrections only (constant potential shift)
   LDIPOL =      F    correct potential (dipole corrections)
   IDIPOL =      0    1-x, 2-y, 3-z, 4-all directions 
   EPSILON=  1.0000000 bulk dielectric constant

 LDA+U is selected, type is set to LDAUTYPE =  2
   angular momentum for each species LDAUL =    -1   -1    2
   U (eV)           for each species LDAUU =   0.0  0.0  5.1
   J (eV)           for each species LDAUJ =   0.0  0.0  0.0
 Exchange correlation treatment:
   GGA     =    PE    GGA type
   LEXCH   =     8    internal setting for exchange type
   VOSKOWN=      0    Vosko Wilk Nusair interpolation
   LHFCALC =     F    Hartree Fock is set to
   LHFONE  =     F    Hartree Fock one center treatment
   AEXX    =    0.0000 exact exchange contribution

 Linear response parameters
   LEPSILON=     F    determine dielectric tensor
   LRPA    =     F    only Hartree local field effects (RPA)
   LNABLA  =     F    use nabla operator in PAW spheres
   LVEL    =     F    velocity operator in full k-point grid
   LINTERFAST=   F  fast interpolation
   KINTER  =     0    interpolate to denser k-point grid
   CSHIFT  =0.1000    complex shift for real part using Kramers Kronig
   OMEGAMAX=  -1.0    maximum frequency
   DEG_THRESHOLD= 0.2000000E-02 threshold for treating states as degnerate
   RTIME   =   -0.100 relaxation time in fs
  (WPLASMAI=    0.000 imaginary part of plasma frequency in eV, 0.658/RTIME)
   DFIELD  = 0.0000000 0.0000000 0.0000000 field for delta impulse in time
 
 Orbital magnetization related:
   ORBITALMAG=     F  switch on orbital magnetization
   LCHIMAG   =     F  perturbation theory with respect to B field
   DQ        =  0.001000  dq finite difference perturbation B field
   LLRAUG    =     F  two centre corrections for induced B field



--------------------------------------------------------------------------------------------------------


 Static calculation
 charge density and potential will be updated during run
 spin polarized calculation
 Variant of blocked Davidson
 Davidson routine will perform the subspace rotation
 perform sub-space diagonalisation
    after iterative eigenvector-optimisation
 modified Broyden-mixing scheme, WC =      100.0
 initial mixing is a Kerker type mixing with AMIX =  0.0200 and BMIX =      0.0001
 Hartree-type preconditioning will be used
 using additional bands           61
 reciprocal scheme for non local part
 use partial core corrections
 calculate Harris-corrections to forces 
   (improved forces if not selfconsistent)
 use gradient corrections 
 use of overlap-Matrix (Vanderbilt PP)
 Gauss-broadening in eV      SIGMA  =   0.01


--------------------------------------------------------------------------------------------------------


  energy-cutoff  :      450.00
  volume of cell :     2097.04
      direct lattice vectors                 reciprocal lattice vectors
    11.007200000  0.000000000  0.000000000     0.090849626  0.000009197  0.000000000
    -0.000965000  9.532200000  0.000000000     0.000000000  0.104907576  0.000000000
     0.000000000  0.000000000 19.986500000     0.000000000  0.000000000  0.050033773

  length of vectors
    11.007200000  9.532200049 19.986500000     0.090849626  0.104907576  0.050033773


 
 k-points in units of 2pi/SCALE and weight: Gamma-point only                        
   0.00000000  0.00000000  0.00000000       1.000
 
 k-points in reciprocal lattice and weights: Gamma-point only                        
   0.00000000  0.00000000  0.00000000       1.000
 
 position of ions in fractional coordinates (direct lattice) 
   0.08721720  0.16016530  0.57164888
   0.33298813  0.33085940  0.57422064
   0.08459955  0.16441583  0.41220959
   0.33474457  0.33251575  0.41177961
   0.58574218  0.16521170  0.57144825
   0.83683380  0.33230666  0.57266490
   0.58544280  0.16342791  0.41205077
   0.83373001  0.33291565  0.41309004
   0.08472731  0.49655722  0.57223648
   0.33369922  0.66104971  0.57274317
   0.08622421  0.49775523  0.41247959
   0.33702823  0.66040951  0.41332030
   0.58550726  0.49904156  0.57061355
   0.83399864  0.66279869  0.57397056
   0.58364373  0.49993327  0.41396037
   0.83971742  0.66532445  0.41253321
   0.08801910  0.82818077  0.56971824
   0.33774898  0.99807490  0.57047313
   0.08396652  0.82376558  0.41249529
   0.33916363  0.99963638  0.41298189
   0.58538522  0.83006961  0.57106397
   0.83785712  0.00078213  0.57104023
   0.58353188  0.82730481  0.41304466
   0.83867333  0.99449148  0.41370696
   0.17390427  0.32913886  0.48927140
   0.42160929  0.16705753  0.49013173
   0.66927132  0.32931160  0.49065224
   0.92230975  0.16204448  0.49073545
   0.17250746  0.66415550  0.48964795
   0.42042667  0.49520225  0.48965072
   0.66755039  0.66289636  0.49017080
   0.91788908  0.49772382  0.49054853
   0.17076322  0.99425752  0.48891391
   0.41811181  0.83092625  0.48958575
   0.66706351  0.99641972  0.49048923
   0.91999999  0.83314947  0.48762704
   0.41997437  0.16228761  0.61966606
   0.67342060  0.32805337  0.62276479
   0.91692732  0.16350662  0.62187031
   0.41614039  0.49723103  0.62123865
   0.66966399  0.66212321  0.62268743
   0.91999832  0.49928688  0.62209333
   0.66919608  0.99873267  0.62036621
 
 position of ions in cartesian coordinates  (Angst):
   0.95986260  1.52672767 11.42526034
   3.66494767  3.15381797 11.47666082
   0.93104551  1.56724457  8.23862697
   3.68427955  3.16960663  8.23003318
   6.44722189  1.57483097 11.42125045
   9.21087633  3.16761354 11.44556702
   6.44392828  1.55782752  8.23545271
   9.17671170  3.17341856  8.25622408
   0.93213127  4.73328273 11.43700441
   3.67245614  6.30125805 11.44713137
   0.94860679  4.74470240  8.24402333
   3.70909984  6.29515553  8.26082618
   6.44431394  4.75696396 11.40456772
   9.17935023  6.31792967 11.47166260
   6.42380083  4.76546392  8.27361894
   9.24229555  6.34200572  8.24509500
   0.96804464  7.89438474 11.38667360
   3.71670743  9.51384956 11.40176121
   0.92344135  7.85229826  8.24433711
   3.73227726  9.52873390  8.25406254
   6.44265118  7.91238954 11.41357004
   9.22246014  0.00745542 11.41309556
   6.42225376  7.88603491  8.25531710
   9.23048539  9.47969169  8.26855416
   1.91388146  3.13741744  9.77882284
   4.64057657  1.59242579  9.79601782
   7.36648549  3.13906403  9.80642099
  10.15189151  1.54464039  9.80808407
   1.89818320  6.33086306  9.78634875
   4.62724257  4.72036689  9.78640412
   7.34722096  6.31886068  9.79679869
  10.10290838  4.74440300  9.80434819
   1.87866546  9.47746153  9.77167786
   4.60143847  7.92055520  9.78510559
   7.34153992  9.49807205  9.80316300
  10.12581990  7.94174738  9.74595783
   4.62258528  1.54695796 12.38495571
   7.41215866  3.12707033 12.44688848
  10.09264461  1.55857780 12.42901095
   4.58006067  4.73970562 12.41638628
   7.37048652  6.31149086 12.44534232
  10.12612370  4.75930240 12.43346834
   7.36501131  9.52011956 12.39894926
 


--------------------------------------------------------------------------------------------------------


 k-point  1 :   0.0000 0.0000 0.0000  plane waves:   45499

 maximum and minimum number of plane-waves per node :      3799     3786

 maximum number of plane-waves:     45499
 maximum index in each direction: 
   IXMAX=   19   IYMAX=   16   IZMAX=   34
   IXMIN=  -19   IYMIN=  -16   IZMIN=  -34


 parallel 3D FFT for wavefunctions:
    minimum data exchange during FFTs selected (reduces bandwidth)
 parallel 3D FFT for charge:
    minimum data exchange during FFTs selected (reduces bandwidth)


 total amount of memory used by VASP MPI-rank0    68622. kBytes
=======================================================================

   base      :      30000. kBytes
   nonl-proj :       4256. kBytes
   fftplans  :       7095. kBytes
   grid      :      19382. kBytes
   one-center:        124. kBytes
   wavefun   :       7765. kBytes
 
     INWAV:  cpu time    0.0000: real time    0.0002
 Broyden mixing: mesh for mixing (old mesh)
   NGX = 39   NGY = 33   NGZ = 69
  (NGX  =160   NGY  =140   NGZ  =280)
  gives a total of  88803 points

 initial charge density was supplied:
 charge density of overlapping atoms calculated
 number of electron     382.0000000 magnetization      43.0000000
 keeping initial charge density in first step


--------------------------------------------------------------------------------------------------------


 Maximum index for augmentation-charges         1007 (set IRDMAX)


--------------------------------------------------------------------------------------------------------


 First call to EWALD:  gamma=   0.138
 Maximum number of real-space cells 3x 4x 2
 Maximum number of reciprocal cells 2x 2x 4

    FEWALD:  cpu time    0.0015: real time    0.0015


--------------------------------------- Iteration      1(   1)  ---------------------------------------


    POTLOK:  cpu time    0.2466: real time    0.2502
    SETDIJ:  cpu time    0.3578: real time    0.3589
     EDDAV:  cpu time    5.0122: real time    5.0328
       DOS:  cpu time    0.0003: real time    0.0003
    --------------------------------------------
      LOOP:  cpu time    5.6170: real time    5.6422

 eigenvalue-minimisations  :  1232
 total energy-change (2. order) : 0.3609814E+04  (-0.1711030E+05)
 number of electron     382.0000000 magnetization      43.0000000
 augmentation part      382.0000000 magnetization      43.0000000

 Free energy of the ion-electron system (eV)
  ---------------------------------------------------
  alpha Z        PSCENC =       462.75907254
  Ewald energy   TEWEN  =     89454.77333750
  -Hartree energ DENC   =   -122141.75798590
  -exchange      EXHF   =         0.00000000
  -V(xc)+E(xc)   XCENC  =      1327.11566500
  PAW double counting   =     29930.64701431   -29970.62728893
  entropy T*S    EENTRO =        -0.00000000
  eigenvalues    EBANDS =     -1987.79247924
  atomic energy  EATOM  =     36534.69703334
  Solvation  Ediel_sol  =         0.00000000
  ---------------------------------------------------
  free energy    TOTEN  =      3609.81436862 eV

  energy without entropy =     3609.81436862  energy(sigma->0) =     3609.81436862


--------------------------------------------------------------------------------------------------------




--------------------------------------- Iteration      1(   2)  ---------------------------------------


     EDDAV:  cpu time    4.9006: real time    4.9177
       DOS:  cpu time    0.0002: real time    0.0002
    --------------------------------------------
      LOOP:  cpu time    4.9008: real time    4.9179

 eigenvalue-minimisations  :  1200
 total energy-change (2. order) :-0.3533943E+04  (-0.3397881E+04)
 number of electron     382.0000000 magnetization      43.0000000
 augmentation part      382.0000000 magnetization      43.0000000

 Free energy of the ion-electron system (eV)
  ---------------------------------------------------
  alpha Z        PSCENC =       462.75907254
  Ewald energy   TEWEN  =     89454.77333750
  -Hartree energ DENC   =   -122141.75798590
  -exchange      EXHF   =         0.00000000
  -V(xc)+E(xc)   XCENC  =      1327.11566500
  PAW double counting   =     29930.64701431   -29970.62728893
  entropy T*S    EENTRO =        -0.00000000
  eigenvalues    EBANDS =     -5521.73577838
  atomic energy  EATOM  =     36534.69703334
  Solvation  Ediel_sol  =         0.00000000
  ---------------------------------------------------
  free energy    TOTEN  =        75.87106949 eV

  energy without entropy =       75.87106949  energy(sigma->0) =       75.87106949


--------------------------------------------------------------------------------------------------------




--------------------------------------- Iteration      1(   3)  ---------------------------------------


     EDDAV:  cpu time    4.8822: real time    4.9010
       DOS:  cpu time    0.0002: real time    0.0002
    --------------------------------------------
      LOOP:  cpu time    4.8824: real time    4.9012

 eigenvalue-minimisations  :  1192
 total energy-change (2. order) :-0.3413295E+03  (-0.3346320E+03)
 number of electron     382.0000000 magnetization      43.0000000
 augmentation part      382.0000000 magnetization      43.0000000

 Free energy of the ion-electron system (eV)
  ---------------------------------------------------
  alpha Z        PSCENC =       462.75907254
  Ewald energy   TEWEN  =     89454.77333750
  -Hartree energ DENC   =   -122141.75798590
  -exchange      EXHF   =         0.00000000
  -V(xc)+E(xc)   XCENC  =      1327.11566500
  PAW double counting   =     29930.64701431   -29970.62728893
  entropy T*S    EENTRO =        -0.00000000
  eigenvalues    EBANDS =     -5863.06532827
  atomic energy  EATOM  =     36534.69703334
  Solvation  Ediel_sol  =         0.00000000
  ---------------------------------------------------
  free energy    TOTEN  =      -265.45848040 eV

  energy without entropy =     -265.45848040  energy(sigma->0) =     -265.45848040


--------------------------------------------------------------------------------------------------------




--------------------------------------- Iteration      1(   4)  ---------------------------------------


     EDDAV:  cpu time    5.0314: real time    5.0634
       DOS:  cpu time    0.0002: real time    0.0002
    --------------------------------------------
      LOOP:  cpu time    5.0317: real time    5.0636

 eigenvalue-minimisations  :  1224
 total energy-change (2. order) :-0.1380092E+02  (-0.1352453E+02)
 number of electron     382.0000000 magnetization      43.0000000
 augmentation part      382.0000000 magnetization      43.0000000

 Free energy of the ion-electron system (eV)
  ---------------------------------------------------
  alpha Z        PSCENC =       462.75907254
  Ewald energy   TEWEN  =     89454.77333750
  -Hartree energ DENC   =   -122141.75798590
  -exchange      EXHF   =         0.00000000
  -V(xc)+E(xc)   XCENC  =      1327.11566500
  PAW double counting   =     29930.64701431   -29970.62728893
  entropy T*S    EENTRO =        -0.00000000
  eigenvalues    EBANDS =     -5876.86624825
  atomic energy  EATOM  =     36534.69703334
  Solvation  Ediel_sol  =         0.00000000
  ---------------------------------------------------
  free energy    TOTEN  =      -279.25940038 eV

  energy without entropy =     -279.25940038  energy(sigma->0) =     -279.25940038


--------------------------------------------------------------------------------------------------------




--------------------------------------- Iteration      1(   5)  ---------------------------------------


     EDDAV:  cpu time    5.2535: real time    5.2725
       DOS:  cpu time    0.0004: real time    0.0004
    CHARGE:  cpu time    0.1278: real time    0.1283
    MIXING:  cpu time    0.0090: real time    0.0097
    --------------------------------------------
      LOOP:  cpu time    5.3908: real time    5.4110

 eigenvalue-minimisations  :  1312
 total energy-change (2. order) :-0.5302869E+00  (-0.5270285E+00)
 number of electron     382.0000040 magnetization       8.6000036
 augmentation part       49.2276118 magnetization       9.4571466

 Broyden mixing:
  rms(total) = 0.91976E+01    rms(broyden)= 0.91976E+01
  rms(prec ) = 0.92946E+01
  weight for this iteration     100.00

 Free energy of the ion-electron system (eV)
  ---------------------------------------------------
  alpha Z        PSCENC =       462.75907254
  Ewald energy   TEWEN  =     89454.77333750
  -Hartree energ DENC   =   -122141.75798590
  -exchange      EXHF   =         0.00000000
  -V(xc)+E(xc)   XCENC  =      1327.11566500
  PAW double counting   =     29930.64701431   -29970.62728893
  entropy T*S    EENTRO =        -0.00000000
  eigenvalues    EBANDS =     -5877.39653512
  atomic energy  EATOM  =     36534.69703334
  Solvation  Ediel_sol  =         0.00000000
  ---------------------------------------------------
  free energy    TOTEN  =      -279.78968726 eV

  energy without entropy =     -279.78968726  energy(sigma->0) =     -279.78968726


--------------------------------------------------------------------------------------------------------




--------------------------------------- Iteration      1(   6)  ---------------------------------------


    POTLOK:  cpu time    0.2436: real time    0.2445
    SETDIJ:  cpu time    0.3569: real time    0.3579
     EDDAV:  cpu time    5.2971: real time    5.3163
       DOS:  cpu time    0.0004: real time    0.0004
    CHARGE:  cpu time    0.1264: real time    0.1268
    MIXING:  cpu time    0.0091: real time    0.0094
    --------------------------------------------
      LOOP:  cpu time    6.0335: real time    6.0553

 eigenvalue-minimisations  :  1328
 total energy-change (2. order) :-0.6689151E+01  (-0.1034180E+00)
 number of electron     382.0000040 magnetization      -4.6980852
 augmentation part       49.4414501 magnetization      -4.2040320

 Broyden mixing:
  rms(total) = 0.84898E+01    rms(broyden)= 0.84898E+01
  rms(prec ) = 0.85786E+01
  weight for this iteration     100.00

 eigenvalues of (default mixing * dielectric matrix)
  average eigenvalue GAMMA=   1.2856
  1.2856

 Free energy of the ion-electron system (eV)
  ---------------------------------------------------
  alpha Z        PSCENC =       462.75907254
  Ewald energy   TEWEN  =     89454.77333750
  -Hartree energ DENC   =   -122121.95995137
  -exchange      EXHF   =         0.00000000
  -V(xc)+E(xc)   XCENC  =      1323.05802663
  PAW double counting   =     30185.08902862   -30228.12972712
  entropy T*S    EENTRO =        -0.00000000
  eigenvalues    EBANDS =     -5896.76565850
  atomic energy  EATOM  =     36534.69703334
  Solvation  Ediel_sol  =         0.00000000
  ---------------------------------------------------
  free energy    TOTEN  =      -286.47883836 eV

  energy without entropy =     -286.47883836  energy(sigma->0) =     -286.47883836


--------------------------------------------------------------------------------------------------------




--------------------------------------- Iteration      1(   7)  ---------------------------------------


    POTLOK:  cpu time    0.2436: real time    0.2446
    SETDIJ:  cpu time    0.3555: real time    0.3565
     EDDAV:  cpu time    5.1651: real time    5.1833
       DOS:  cpu time    0.0005: real time    0.0005
    CHARGE:  cpu time    0.1272: real time    0.1278
    MIXING:  cpu time    0.0089: real time    0.0090
    --------------------------------------------
      LOOP:  cpu time    5.9009: real time    5.9216

 eigenvalue-minimisations  :  1280
 total energy-change (2. order) : 0.3601660E+01  (-0.1681807E+00)
 number of electron     382.0000040 magnetization      -0.3174242
 augmentation part       49.9414736 magnetization      -0.2253668

 Broyden mixing:
  rms(total) = 0.77971E+01    rms(broyden)= 0.77971E+01
  rms(prec ) = 0.78653E+01
  weight for this iteration     100.00

 eigenvalues of (default mixing * dielectric matrix)
  average eigenvalue GAMMA=   2.4062
  1.2434  3.5690

 Free energy of the ion-electron system (eV)
  ---------------------------------------------------
  alpha Z        PSCENC =       462.75907254
  Ewald energy   TEWEN  =     89454.77333750
  -Hartree energ DENC   =   -122091.58860772
  -exchange      EXHF   =         0.00000000
  -V(xc)+E(xc)   XCENC  =      1321.82124438
  PAW double counting   =     30671.61145155   -30717.69110861
  entropy T*S    EENTRO =        -0.00000000
  eigenvalues    EBANDS =     -5919.25960115
  atomic energy  EATOM  =     36534.69703334
  Solvation  Ediel_sol  =         0.00000000
  ---------------------------------------------------
  free energy    TOTEN  =      -282.87717818 eV

  energy without entropy =     -282.87717818  energy(sigma->0) =     -282.87717818


--------------------------------------------------------------------------------------------------------




--------------------------------------- Iteration      1(   8)  ---------------------------------------


    POTLOK:  cpu time    0.2439: real time    0.2449
    SETDIJ:  cpu time    0.3554: real time    0.3563
     EDDAV:  cpu time    5.2213: real time    5.2398
       DOS:  cpu time    0.0004: real time    0.0004
    CHARGE:  cpu time    0.1271: real time    0.1275
    MIXING:  cpu time    0.0093: real time    0.0094
    --------------------------------------------
      LOOP:  cpu time    5.9576: real time    5.9784

 eigenvalue-minimisations  :  1304
 total energy-change (2. order) : 0.7873884E+01  (-0.4332170E+01)
 number of electron     382.0000040 magnetization      -0.0574931
 augmentation part       53.7685327 magnetization      -1.9266321

 Broyden mixing:
  rms(total) = 0.43394E+01    rms(broyden)= 0.43394E+01
  rms(prec ) = 0.44956E+01
  weight for this iteration     100.00

 eigenvalues of (default mixing * dielectric matrix)
  average eigenvalue GAMMA=   4.6377
 11.3422  1.2586  1.3122

 Free energy of the ion-electron system (eV)
  ---------------------------------------------------
  alpha Z        PSCENC =       462.75907254
  Ewald energy   TEWEN  =     89454.77333750
  -Hartree energ DENC   =   -121938.05133233
  -exchange      EXHF   =         0.00000000
  -V(xc)+E(xc)   XCENC  =      1315.70521299
  PAW double counting   =     34532.17659087   -34594.78933522
  entropy T*S    EENTRO =        -0.00000000
  eigenvalues    EBANDS =     -6042.27387369
  atomic energy  EATOM  =     36534.69703334
  Solvation  Ediel_sol  =         0.00000000
  ---------------------------------------------------
  free energy    TOTEN  =      -275.00329399 eV

  energy without entropy =     -275.00329399  energy(sigma->0) =     -275.00329399


--------------------------------------------------------------------------------------------------------




--------------------------------------- Iteration      1(   9)  ---------------------------------------


    POTLOK:  cpu time    0.2439: real time    0.2449
    SETDIJ:  cpu time    0.3562: real time    0.3572
     EDDAV:  cpu time    5.7101: real time    5.7295
       DOS:  cpu time    0.0011: real time    0.0011
    CHARGE:  cpu time    0.1266: real time    0.1270
    MIXING:  cpu time    0.0092: real time    0.0092
    --------------------------------------------
      LOOP:  cpu time    6.4471: real time    6.4689

 eigenvalue-minimisations  :  1408
 total energy-change (2. order) :-0.1110235E+01  (-0.8981921E+00)
 number of electron     382.0000041 magnetization       0.6589266
 augmentation part       56.2022973 magnetization      -0.9160263

 Broyden mixing:
  rms(total) = 0.34473E+01    rms(broyden)= 0.34473E+01
  rms(prec ) = 0.36072E+01
  weight for this iteration     100.00

 eigenvalues of (default mixing * dielectric matrix)
  average eigenvalue GAMMA=   5.7167
 19.3520  1.5891  1.2173  0.7086

 Free energy of the ion-electron system (eV)
  ---------------------------------------------------
  alpha Z        PSCENC =       462.75907254
  Ewald energy   TEWEN  =     89454.77333750
  -Hartree energ DENC   =   -121960.06960857
  -exchange      EXHF   =         0.00000000
  -V(xc)+E(xc)   XCENC  =      1313.97472426
  PAW double counting   =     35994.11733730   -36058.94269247
  entropy T*S    EENTRO =        -0.00000000
  eigenvalues    EBANDS =     -6017.42273310
  atomic energy  EATOM  =     36534.69703334
  Solvation  Ediel_sol  =         0.00000000
  ---------------------------------------------------
  free energy    TOTEN  =      -276.11352919 eV

  energy without entropy =     -276.11352919  energy(sigma->0) =     -276.11352919


--------------------------------------------------------------------------------------------------------




--------------------------------------- Iteration      1(  10)  ---------------------------------------


    POTLOK:  cpu time    0.2439: real time    0.2449
    SETDIJ:  cpu time    0.3543: real time    0.3555
     EDDAV:  cpu time    5.6250: real time    5.6448
       DOS:  cpu time    0.0005: real time    0.0005
    CHARGE:  cpu time    0.1280: real time    0.1285
    MIXING:  cpu time    0.0096: real time    0.0096
    --------------------------------------------
      LOOP:  cpu time    6.3613: real time    6.3867

 eigenvalue-minimisations  :  1432
 total energy-change (2. order) : 0.3567688E+00  (-0.2425346E+00)
 number of electron     382.0000042 magnetization      -0.6816489
 augmentation part       57.4894010 magnetization      -1.5409712

 Broyden mixing:
  rms(total) = 0.29128E+01    rms(broyden)= 0.29128E+01
  rms(prec ) = 0.30386E+01
  weight for this iteration     100.00

 eigenvalues of (default mixing * dielectric matrix)
  average eigenvalue GAMMA=   5.3453
 21.3382  2.0888  1.0351  1.0351  1.2291

 Free energy of the ion-electron system (eV)
  ---------------------------------------------------
  alpha Z        PSCENC =       462.75907254
  Ewald energy   TEWEN  =     89454.77333750
  -Hartree energ DENC   =   -122028.41095300
  -exchange      EXHF   =         0.00000000
  -V(xc)+E(xc)   XCENC  =      1313.10823460
  PAW double counting   =     37278.87962600   -37344.68969035
  entropy T*S    EENTRO =        -0.00000000
  eigenvalues    EBANDS =     -5946.87342107
  atomic energy  EATOM  =     36534.69703334
  Solvation  Ediel_sol  =         0.00000000
  ---------------------------------------------------
  free energy    TOTEN  =      -275.75676043 eV

  energy without entropy =     -275.75676043  energy(sigma->0) =     -275.75676043


--------------------------------------------------------------------------------------------------------




--------------------------------------- Iteration      1(  11)  ---------------------------------------


    POTLOK:  cpu time    0.2439: real time    0.2483
    SETDIJ:  cpu time    0.3580: real time    0.3589
     EDDAV:  cpu time    5.6956: real time    5.7150
       DOS:  cpu time    0.0004: real time    0.0004
    CHARGE:  cpu time    0.1277: real time    0.1281
    MIXING:  cpu time    0.0093: real time    0.0093
    --------------------------------------------
      LOOP:  cpu time    6.4348: real time    6.4570

 eigenvalue-minimisations  :  1456
 total energy-change (2. order) : 0.1187339E+01  (-0.2672729E+00)
 number of electron     382.0000042 magnetization      -0.4440912
 augmentation part       57.6942815 magnetization      -0.4099155

 Broyden mixing:
  rms(total) = 0.22954E+01    rms(broyden)= 0.22954E+01
  rms(prec ) = 0.23898E+01
  weight for this iteration     100.00

 eigenvalues of (default mixing * dielectric matrix)
  average eigenvalue GAMMA=   5.8287
 27.1230  3.1520  1.3864  1.0456  1.0456  1.2198

 Free energy of the ion-electron system (eV)
  ---------------------------------------------------
  alpha Z        PSCENC =       462.75907254
  Ewald energy   TEWEN  =     89454.77333750
  -Hartree energ DENC   =   -122155.94777423
  -exchange      EXHF   =         0.00000000
  -V(xc)+E(xc)   XCENC  =      1313.17511102
  PAW double counting   =     38965.83611210   -39032.78529952
  entropy T*S    EENTRO =        -0.00000000
  eigenvalues    EBANDS =     -5817.07701432
  atomic energy  EATOM  =     36534.69703334
  Solvation  Ediel_sol  =         0.00000000
  ---------------------------------------------------
  free energy    TOTEN  =      -274.56942156 eV

  energy without entropy =     -274.56942156  energy(sigma->0) =     -274.56942156


--------------------------------------------------------------------------------------------------------




--------------------------------------- Iteration      1(  12)  ---------------------------------------


    POTLOK:  cpu time    0.2437: real time    0.2448
    SETDIJ:  cpu time    0.3603: real time    0.3614
     EDDAV:  cpu time    5.4586: real time    5.4774
       DOS:  cpu time    0.0004: real time    0.0004
    CHARGE:  cpu time    0.1272: real time    0.1277
    MIXING:  cpu time    0.0101: real time    0.0101
    --------------------------------------------
      LOOP:  cpu time    6.2004: real time    6.2218

 eigenvalue-minimisations  :  1376
 total energy-change (2. order) : 0.1788721E+01  (-0.4277242E+00)
 number of electron     382.0000042 magnetization      -0.0976462
 augmentation part       56.5291101 magnetization       0.4299954

 Broyden mixing:
  rms(total) = 0.16030E+01    rms(broyden)= 0.16029E+01
  rms(prec ) = 0.16621E+01
  weight for this iteration     100.00

 eigenvalues of (default mixing * dielectric matrix)
  average eigenvalue GAMMA=   5.8493
 29.8934  4.6484  1.8424  0.9269  1.2174  1.2083  1.2083

 Free energy of the ion-electron system (eV)
  ---------------------------------------------------
  alpha Z        PSCENC =       462.75907254
  Ewald energy   TEWEN  =     89454.77333750
  -Hartree energ DENC   =   -122317.78839267
  -exchange      EXHF   =         0.00000000
  -V(xc)+E(xc)   XCENC  =      1314.47693915
  PAW double counting   =     40958.27575172   -41026.64565699
  entropy T*S    EENTRO =        -0.00000000
  eigenvalues    EBANDS =     -5653.32878549
  atomic energy  EATOM  =     36534.69703334
  Solvation  Ediel_sol  =         0.00000000
  ---------------------------------------------------
  free energy    TOTEN  =      -272.78070090 eV

  energy without entropy =     -272.78070090  energy(sigma->0) =     -272.78070090


--------------------------------------------------------------------------------------------------------




--------------------------------------- Iteration      1(  13)  ---------------------------------------


    POTLOK:  cpu time    0.2437: real time    0.2451
    SETDIJ:  cpu time    0.3573: real time    0.3583
     EDDAV:  cpu time    5.5495: real time    5.5686
       DOS:  cpu time    0.0003: real time    0.0003
    CHARGE:  cpu time    0.1274: real time    0.1278
    MIXING:  cpu time    0.0098: real time    0.0099
    --------------------------------------------
      LOOP:  cpu time    6.2881: real time    6.3101

 eigenvalue-minimisations  :  1408
 total energy-change (2. order) : 0.2479292E+00  (-0.3666547E+00)
 number of electron     382.0000041 magnetization       0.0398885
 augmentation part       54.7984714 magnetization       0.4410497

 Broyden mixing:
  rms(total) = 0.92766E+00    rms(broyden)= 0.92765E+00
  rms(prec ) = 0.99813E+00
  weight for this iteration     100.00

 eigenvalues of (default mixing * dielectric matrix)
  average eigenvalue GAMMA=   6.7983
 36.8340  8.9419  2.7027  1.5397  1.2580  0.9280  1.0911  1.0911

 Free energy of the ion-electron system (eV)
  ---------------------------------------------------
  alpha Z        PSCENC =       462.75907254
  Ewald energy   TEWEN  =     89454.77333750
  -Hartree energ DENC   =   -122434.52888697
  -exchange      EXHF   =         0.00000000
  -V(xc)+E(xc)   XCENC  =      1315.75969682
  PAW double counting   =     42885.91773890   -42956.95034677
  entropy T*S    EENTRO =        -0.00000000
  eigenvalues    EBANDS =     -5534.96041702
  atomic energy  EATOM  =     36534.69703334
  Solvation  Ediel_sol  =         0.00000000
  ---------------------------------------------------
  free energy    TOTEN  =      -272.53277166 eV

  energy without entropy =     -272.53277166  energy(sigma->0) =     -272.53277166


--------------------------------------------------------------------------------------------------------




--------------------------------------- Iteration      1(  14)  ---------------------------------------


    POTLOK:  cpu time    0.2488: real time    0.2501
    SETDIJ:  cpu time    0.3508: real time    0.3616
     EDDAV:  cpu time    5.8037: real time    5.8814
       DOS:  cpu time    0.0004: real time    0.0004
    CHARGE:  cpu time    0.1272: real time    0.1276
    MIXING:  cpu time    0.0099: real time    0.0100
    --------------------------------------------
      LOOP:  cpu time    6.5409: real time    6.6311

 eigenvalue-minimisations  :  1464
 total energy-change (2. order) :-0.1435332E+00  (-0.1470036E+00)
 number of electron     382.0000041 magnetization      -0.0622528
 augmentation part       54.0018438 magnetization       0.0569875

 Broyden mixing:
  rms(total) = 0.61206E+00    rms(broyden)= 0.61204E+00
  rms(prec ) = 0.71560E+00
  weight for this iteration     100.00

 eigenvalues of (default mixing * dielectric matrix)
  average eigenvalue GAMMA=   6.5706
 39.2055 10.0946  2.8902  1.5986  1.3039  1.1376  1.0121  1.0121  0.8805

 Free energy of the ion-electron system (eV)
  ---------------------------------------------------
  alpha Z        PSCENC =       462.75907254
  Ewald energy   TEWEN  =     89454.77333750
  -Hartree energ DENC   =   -122455.54277177
  -exchange      EXHF   =         0.00000000
  -V(xc)+E(xc)   XCENC  =      1316.19357002
  PAW double counting   =     44113.31682848   -44185.96647353
  entropy T*S    EENTRO =        -0.00000000
  eigenvalues    EBANDS =     -5512.90690144
  atomic energy  EATOM  =     36534.69703334
  Solvation  Ediel_sol  =         0.00000000
  ---------------------------------------------------
  free energy    TOTEN  =      -272.67630487 eV

  energy without entropy =     -272.67630487  energy(sigma->0) =     -272.67630487


--------------------------------------------------------------------------------------------------------




--------------------------------------- Iteration      1(  15)  ---------------------------------------


    POTLOK:  cpu time    0.2437: real time    0.2447
    SETDIJ:  cpu time    0.3582: real time    0.3594
     EDDAV:  cpu time    5.4565: real time    5.4747
       DOS:  cpu time    0.0004: real time    0.0004
    CHARGE:  cpu time    0.1275: real time    0.1279
    MIXING:  cpu time    0.0101: real time    0.0102
    --------------------------------------------
      LOOP:  cpu time    6.1965: real time    6.2172

 eigenvalue-minimisations  :  1376
 total energy-change (2. order) : 0.3059802E+00  (-0.3017996E-01)
 number of electron     382.0000041 magnetization      -0.0114127
 augmentation part       53.9058688 magnetization       0.0011915

 Broyden mixing:
  rms(total) = 0.55355E+00    rms(broyden)= 0.55354E+00
  rms(prec ) = 0.63831E+00
  weight for this iteration     100.00

 eigenvalues of (default mixing * dielectric matrix)
  average eigenvalue GAMMA=   6.3637
 40.8501 11.1277  3.1033  1.7578  1.4971  1.2313  1.1108  1.1108  0.9241  0.9241

 Free energy of the ion-electron system (eV)
  ---------------------------------------------------
  alpha Z        PSCENC =       462.75907254
  Ewald energy   TEWEN  =     89454.77333750
  -Hartree energ DENC   =   -122429.63153867
  -exchange      EXHF   =         0.00000000
  -V(xc)+E(xc)   XCENC  =      1316.20828759
  PAW double counting   =     44465.65989399   -44538.35134418
  entropy T*S    EENTRO =        -0.00000000
  eigenvalues    EBANDS =     -5538.48506675
  atomic energy  EATOM  =     36534.69703334
  Solvation  Ediel_sol  =         0.00000000
  ---------------------------------------------------
  free energy    TOTEN  =      -272.37032463 eV

  energy without entropy =     -272.37032463  energy(sigma->0) =     -272.37032463


--------------------------------------------------------------------------------------------------------




--------------------------------------- Iteration      1(  16)  ---------------------------------------


    POTLOK:  cpu time    0.2452: real time    0.2462
    SETDIJ:  cpu time    0.3579: real time    0.3588
     EDDAV:  cpu time    5.3538: real time    5.3719
       DOS:  cpu time    0.0004: real time    0.0004
    CHARGE:  cpu time    0.1280: real time    0.1284
    MIXING:  cpu time    0.0110: real time    0.0110
    --------------------------------------------
      LOOP:  cpu time    6.0961: real time    6.1168

 eigenvalue-minimisations  :  1336
 total energy-change (2. order) : 0.5039158E+00  (-0.5371137E-01)
 number of electron     382.0000041 magnetization       0.0172667
 augmentation part       53.7476368 magnetization      -0.0542019

 Broyden mixing:
  rms(total) = 0.44640E+00    rms(broyden)= 0.44639E+00
  rms(prec ) = 0.49962E+00
  weight for this iteration     100.00

 eigenvalues of (default mixing * dielectric matrix)
  average eigenvalue GAMMA=   6.2418
 42.1700 12.2430  3.4236  2.6541  1.5174  1.2399  1.2399  1.2272  1.0159  1.0159
  0.9134

 Free energy of the ion-electron system (eV)
  ---------------------------------------------------
  alpha Z        PSCENC =       462.75907254
  Ewald energy   TEWEN  =     89454.77333750
  -Hartree energ DENC   =   -122376.85326994
  -exchange      EXHF   =         0.00000000
  -V(xc)+E(xc)   XCENC  =      1316.33148764
  PAW double counting   =     45102.66284927   -45174.78586589
  entropy T*S    EENTRO =        -0.00000000
  eigenvalues    EBANDS =     -5591.45105324
  atomic energy  EATOM  =     36534.69703334
  Solvation  Ediel_sol  =         0.00000000
  ---------------------------------------------------
  free energy    TOTEN  =      -271.86640878 eV

  energy without entropy =     -271.86640878  energy(sigma->0) =     -271.86640878


--------------------------------------------------------------------------------------------------------




--------------------------------------- Iteration      1(  17)  ---------------------------------------


    POTLOK:  cpu time    0.2447: real time    0.2457
    SETDIJ:  cpu time    0.3596: real time    0.3606
     EDDAV:  cpu time    5.1878: real time    5.2049
       DOS:  cpu time    0.0004: real time    0.0004
    CHARGE:  cpu time    0.1277: real time    0.1281
    MIXING:  cpu time    0.0107: real time    0.0107
    --------------------------------------------
      LOOP:  cpu time    5.9309: real time    5.9504

 eigenvalue-minimisations  :  1288
 total energy-change (2. order) : 0.3019524E+00  (-0.9979384E-01)
 number of electron     382.0000041 magnetization       0.0163022
 augmentation part       53.7913304 magnetization      -0.0380929

 Broyden mixing:
  rms(total) = 0.33913E+00    rms(broyden)= 0.33912E+00
  rms(prec ) = 0.36503E+00
  weight for this iteration     100.00

 eigenvalues of (default mixing * dielectric matrix)
  average eigenvalue GAMMA=   6.2744
 43.8405 14.0758  4.7862  3.2559  1.4301  1.4301  1.3411  1.1710  1.0625  1.0625
  0.9185  0.9185

 Free energy of the ion-electron system (eV)
  ---------------------------------------------------
  alpha Z        PSCENC =       462.75907254
  Ewald energy   TEWEN  =     89454.77333750
  -Hartree energ DENC   =   -122298.60431922
  -exchange      EXHF   =         0.00000000
  -V(xc)+E(xc)   XCENC  =      1316.27742007
  PAW double counting   =     45836.41600410   -45907.35900824
  entropy T*S    EENTRO =        -0.00000000
  eigenvalues    EBANDS =     -5670.52399648
  atomic energy  EATOM  =     36534.69703334
  Solvation  Ediel_sol  =         0.00000000
  ---------------------------------------------------
  free energy    TOTEN  =      -271.56445639 eV

  energy without entropy =     -271.56445639  energy(sigma->0) =     -271.56445639


--------------------------------------------------------------------------------------------------------




--------------------------------------- Iteration      1(  18)  ---------------------------------------


    POTLOK:  cpu time    0.2478: real time    0.2508
    SETDIJ:  cpu time    0.3590: real time    0.3599
     EDDAV:  cpu time    5.6447: real time    5.6638
       DOS:  cpu time    0.0004: real time    0.0004
    CHARGE:  cpu time    0.1269: real time    0.1273
    MIXING:  cpu time    0.0114: real time    0.0114
    --------------------------------------------
      LOOP:  cpu time    6.3902: real time    6.4136

 eigenvalue-minimisations  :  1400
 total energy-change (2. order) : 0.2331808E-01  (-0.2916157E-01)
 number of electron     382.0000041 magnetization       0.0213119
 augmentation part       53.9307448 magnetization       0.0501058

 Broyden mixing:
  rms(total) = 0.27983E+00    rms(broyden)= 0.27982E+00
  rms(prec ) = 0.30355E+00
  weight for this iteration     100.00

 eigenvalues of (default mixing * dielectric matrix)
  average eigenvalue GAMMA=   6.1290
 43.1707 15.6690  6.2764  3.3132  2.1835  1.4554  1.2472  1.2472  1.0776  1.0776
  1.1018  0.9286  0.9286

 Free energy of the ion-electron system (eV)
  ---------------------------------------------------
  alpha Z        PSCENC =       462.75907254
  Ewald energy   TEWEN  =     89454.77333750
  -Hartree energ DENC   =   -122285.91852422
  -exchange      EXHF   =         0.00000000
  -V(xc)+E(xc)   XCENC  =      1316.17332622
  PAW double counting   =     45882.24930238   -45952.68228485
  entropy T*S    EENTRO =        -0.00000000
  eigenvalues    EBANDS =     -5683.59240122
  atomic energy  EATOM  =     36534.69703334
  Solvation  Ediel_sol  =         0.00000000
  ---------------------------------------------------
  free energy    TOTEN  =      -271.54113831 eV

  energy without entropy =     -271.54113831  energy(sigma->0) =     -271.54113831


--------------------------------------------------------------------------------------------------------




--------------------------------------- Iteration      1(  19)  ---------------------------------------


    POTLOK:  cpu time    0.2448: real time    0.2457
    SETDIJ:  cpu time    0.3589: real time    0.3599
     EDDAV:  cpu time    5.3353: real time    5.3531
       DOS:  cpu time    0.0004: real time    0.0004
    CHARGE:  cpu time    0.1277: real time    0.1281
    MIXING:  cpu time    0.0110: real time    0.0110
    --------------------------------------------
      LOOP:  cpu time    6.0781: real time    6.0982

 eigenvalue-minimisations  :  1336
 total energy-change (2. order) : 0.6298409E-01  (-0.6652464E-02)
 number of electron     382.0000041 magnetization       0.0107584
 augmentation part       54.0377540 magnetization       0.0125853

 Broyden mixing:
  rms(total) = 0.26011E+00    rms(broyden)= 0.26011E+00
  rms(prec ) = 0.27092E+00
  weight for this iteration     100.00

 eigenvalues of (default mixing * dielectric matrix)
  average eigenvalue GAMMA=   6.0614
 44.4749 17.0569  6.7760  3.7910  2.5649  1.6313  1.2655  1.2244  1.2244  1.0398
  1.0398  0.9170  0.9268  0.9268

 Free energy of the ion-electron system (eV)
  ---------------------------------------------------
  alpha Z        PSCENC =       462.75907254
  Ewald energy   TEWEN  =     89454.77333750
  -Hartree energ DENC   =   -122267.31125076
  -exchange      EXHF   =         0.00000000
  -V(xc)+E(xc)   XCENC  =      1316.03844853
  PAW double counting   =     45442.06633543   -45511.92987276
  entropy T*S    EENTRO =        -0.00000000
  eigenvalues    EBANDS =     -5702.57125805
  atomic energy  EATOM  =     36534.69703334
  Solvation  Ediel_sol  =         0.00000000
  ---------------------------------------------------
  free energy    TOTEN  =      -271.47815422 eV

  energy without entropy =     -271.47815422  energy(sigma->0) =     -271.47815422


--------------------------------------------------------------------------------------------------------




--------------------------------------- Iteration      1(  20)  ---------------------------------------


    POTLOK:  cpu time    0.2455: real time    0.2464
    SETDIJ:  cpu time    0.3591: real time    0.3601
     EDDAV:  cpu time    5.4742: real time    5.4923
       DOS:  cpu time    0.0004: real time    0.0004
    CHARGE:  cpu time    0.1277: real time    0.1281
    MIXING:  cpu time    0.0116: real time    0.0116
    --------------------------------------------
      LOOP:  cpu time    6.2184: real time    6.2389

 eigenvalue-minimisations  :  1376
 total energy-change (2. order) : 0.3225299E-01  (-0.5438168E-02)
 number of electron     382.0000041 magnetization       0.0345137
 augmentation part       54.1130569 magnetization       0.1000527

 Broyden mixing:
  rms(total) = 0.21073E+00    rms(broyden)= 0.21072E+00
  rms(prec ) = 0.21506E+00
  weight for this iteration     100.00

 eigenvalues of (default mixing * dielectric matrix)
  average eigenvalue GAMMA=   5.9977
 45.1488 19.0146  7.5463  3.8545  2.6463  1.6334  1.6334  1.2904  1.2316  1.2316
  0.9163  0.9536  0.9536  0.9553  0.9553

 Free energy of the ion-electron system (eV)
  ---------------------------------------------------
  alpha Z        PSCENC =       462.75907254
  Ewald energy   TEWEN  =     89454.77333750
  -Hartree energ DENC   =   -122260.06505866
  -exchange      EXHF   =         0.00000000
  -V(xc)+E(xc)   XCENC  =      1316.00363723
  PAW double counting   =     45627.10358400   -45696.37885068
  entropy T*S    EENTRO =        -0.00000000
  eigenvalues    EBANDS =     -5710.33865651
  atomic energy  EATOM  =     36534.69703334
  Solvation  Ediel_sol  =         0.00000000
  ---------------------------------------------------
  free energy    TOTEN  =      -271.44590124 eV

  energy without entropy =     -271.44590124  energy(sigma->0) =     -271.44590124


--------------------------------------------------------------------------------------------------------




--------------------------------------- Iteration      1(  21)  ---------------------------------------


    POTLOK:  cpu time    0.2448: real time    0.2458
    SETDIJ:  cpu time    0.3563: real time    0.3573
     EDDAV:  cpu time    4.9820: real time    4.9989
       DOS:  cpu time    0.0004: real time    0.0004
    CHARGE:  cpu time    0.1276: real time    0.1280
    MIXING:  cpu time    0.0119: real time    0.0119
    --------------------------------------------
      LOOP:  cpu time    5.7230: real time    5.7423

 eigenvalue-minimisations  :  1224
 total energy-change (2. order) :-0.8483082E-02  (-0.1210012E-01)
 number of electron     382.0000041 magnetization      -0.0078594
 augmentation part       54.0666128 magnetization       0.0436141

 Broyden mixing:
  rms(total) = 0.16906E+00    rms(broyden)= 0.16906E+00
  rms(prec ) = 0.17508E+00
  weight for this iteration     100.00

 eigenvalues of (default mixing * dielectric matrix)
  average eigenvalue GAMMA=   5.9849
 44.7556 20.1274  8.6288  5.2868  3.5091  2.2552  1.5735  1.3406  1.3406  1.2329
  1.0681  1.0681  0.9440  0.9440  0.8840  0.7995

 Free energy of the ion-electron system (eV)
  ---------------------------------------------------
  alpha Z        PSCENC =       462.75907254
  Ewald energy   TEWEN  =     89454.77333750
  -Hartree energ DENC   =   -122242.97511210
  -exchange      EXHF   =         0.00000000
  -V(xc)+E(xc)   XCENC  =      1316.10457230
  PAW double counting   =     45887.99957395   -45956.25326778
  entropy T*S    EENTRO =        -0.00000000
  eigenvalues    EBANDS =     -5728.55959406
  atomic energy  EATOM  =     36534.69703334
  Solvation  Ediel_sol  =         0.00000000
  ---------------------------------------------------
  free energy    TOTEN  =      -271.45438432 eV

  energy without entropy =     -271.45438432  energy(sigma->0) =     -271.45438432


--------------------------------------------------------------------------------------------------------




--------------------------------------- Iteration      1(  22)  ---------------------------------------


    POTLOK:  cpu time    0.2446: real time    0.2455
    SETDIJ:  cpu time    0.3571: real time    0.3581
     EDDAV:  cpu time    5.4757: real time    5.4944
       DOS:  cpu time    0.0004: real time    0.0004
    CHARGE:  cpu time    0.1280: real time    0.1284
    MIXING:  cpu time    0.0115: real time    0.0116
    --------------------------------------------
      LOOP:  cpu time    6.2172: real time    6.2383

 eigenvalue-minimisations  :  1384
 total energy-change (2. order) : 0.9143627E-02  (-0.4338761E-02)
 number of electron     382.0000041 magnetization       0.0119764
 augmentation part       54.1180820 magnetization      -0.0248415

 Broyden mixing:
  rms(total) = 0.13388E+00    rms(broyden)= 0.13387E+00
  rms(prec ) = 0.13953E+00
  weight for this iteration     100.00

 eigenvalues of (default mixing * dielectric matrix)
  average eigenvalue GAMMA=   5.9386
 44.1831 20.7600 10.8045  6.7018  3.5689  2.5108  1.5483  1.5483  1.2278  1.2278
  1.2537  0.9829  0.9829  0.9119  0.9119  0.9159  0.9159

 Free energy of the ion-electron system (eV)
  ---------------------------------------------------
  alpha Z        PSCENC =       462.75907254
  Ewald energy   TEWEN  =     89454.77333750
  -Hartree energ DENC   =   -122246.71858572
  -exchange      EXHF   =         0.00000000
  -V(xc)+E(xc)   XCENC  =      1316.11202449
  PAW double counting   =     45848.76983124   -45916.86875128
  entropy T*S    EENTRO =        -0.00000000
  eigenvalues    EBANDS =     -5724.96920280
  atomic energy  EATOM  =     36534.69703334
  Solvation  Ediel_sol  =         0.00000000
  ---------------------------------------------------
  free energy    TOTEN  =      -271.44524069 eV

  energy without entropy =     -271.44524069  energy(sigma->0) =     -271.44524069


--------------------------------------------------------------------------------------------------------




--------------------------------------- Iteration      1(  23)  ---------------------------------------


    POTLOK:  cpu time    0.2444: real time    0.2453
    SETDIJ:  cpu time    0.3578: real time    0.3590
     EDDAV:  cpu time    5.5090: real time    5.5274
       DOS:  cpu time    0.0004: real time    0.0004
    CHARGE:  cpu time    0.1270: real time    0.1274
    MIXING:  cpu time    0.0121: real time    0.0121
    --------------------------------------------
      LOOP:  cpu time    6.2507: real time    6.2717

 eigenvalue-minimisations  :  1352
 total energy-change (2. order) : 0.5510300E-02  (-0.1920979E-02)
 number of electron     382.0000041 magnetization       0.0442243
 augmentation part       54.1787762 magnetization      -0.0159945

 Broyden mixing:
  rms(total) = 0.11085E+00    rms(broyden)= 0.11085E+00
  rms(prec ) = 0.11508E+00
  weight for this iteration     100.00

 eigenvalues of (default mixing * dielectric matrix)
  average eigenvalue GAMMA=   5.8260
 44.0652 21.1256 12.6921  7.1936  3.6366  2.6935  1.5420  1.3909  1.3909  1.4019
  1.2015  1.0292  1.0292  0.9338  0.9338  0.9110  0.9110  0.7866

 Free energy of the ion-electron system (eV)
  ---------------------------------------------------
  alpha Z        PSCENC =       462.75907254
  Ewald energy   TEWEN  =     89454.77333750
  -Hartree energ DENC   =   -122250.05408189
  -exchange      EXHF   =         0.00000000
  -V(xc)+E(xc)   XCENC  =      1316.11195172
  PAW double counting   =     45787.77303388   -45855.81285514
  entropy T*S    EENTRO =        -0.00000000
  eigenvalues    EBANDS =     -5721.68722234
  atomic energy  EATOM  =     36534.69703334
  Solvation  Ediel_sol  =         0.00000000
  ---------------------------------------------------
  free energy    TOTEN  =      -271.43973039 eV

  energy without entropy =     -271.43973039  energy(sigma->0) =     -271.43973039


--------------------------------------------------------------------------------------------------------




--------------------------------------- Iteration      1(  24)  ---------------------------------------


    POTLOK:  cpu time    0.2426: real time    0.2454
    SETDIJ:  cpu time    0.3567: real time    0.3577
     EDDAV:  cpu time    5.3983: real time    5.4162
       DOS:  cpu time    0.0004: real time    0.0004
    CHARGE:  cpu time    0.1271: real time    0.1275
    MIXING:  cpu time    0.0125: real time    0.0126
    --------------------------------------------
      LOOP:  cpu time    6.1376: real time    6.1598

 eigenvalue-minimisations  :  1360
 total energy-change (2. order) : 0.3118174E-02  (-0.6088212E-03)
 number of electron     382.0000041 magnetization       0.0374399
 augmentation part       54.1949940 magnetization      -0.0281348

 Broyden mixing:
  rms(total) = 0.95007E-01    rms(broyden)= 0.95007E-01
  rms(prec ) = 0.97858E-01
  weight for this iteration     100.00

 eigenvalues of (default mixing * dielectric matrix)
  average eigenvalue GAMMA=   5.8660
 44.8266 22.9858 13.8595  7.4713  3.8760  2.7716  1.7443  1.7443  1.7529  1.4490
  1.2077  1.1229  1.1229  0.9550  0.9550  0.9356  0.9356  0.8691  0.8691

 Free energy of the ion-electron system (eV)
  ---------------------------------------------------
  alpha Z        PSCENC =       462.75907254
  Ewald energy   TEWEN  =     89454.77333750
  -Hartree energ DENC   =   -122253.39550549
  -exchange      EXHF   =         0.00000000
  -V(xc)+E(xc)   XCENC  =      1316.15399203
  PAW double counting   =     45776.15223318   -45844.16489626
  entropy T*S    EENTRO =        -0.00000000
  eigenvalues    EBANDS =     -5718.41187905
  atomic energy  EATOM  =     36534.69703334
  Solvation  Ediel_sol  =         0.00000000
  ---------------------------------------------------
  free energy    TOTEN  =      -271.43661222 eV

  energy without entropy =     -271.43661222  energy(sigma->0) =     -271.43661222


--------------------------------------------------------------------------------------------------------




--------------------------------------- Iteration      1(  25)  ---------------------------------------


    POTLOK:  cpu time    0.2453: real time    0.2470
    SETDIJ:  cpu time    0.3583: real time    0.3593
     EDDAV:  cpu time    5.5852: real time    5.6044
       DOS:  cpu time    0.0004: real time    0.0004
    CHARGE:  cpu time    0.1284: real time    0.1288
    MIXING:  cpu time    0.0131: real time    0.0131
    --------------------------------------------
      LOOP:  cpu time    6.3307: real time    6.3530

 eigenvalue-minimisations  :  1416
 total energy-change (2. order) :-0.1889035E-02  (-0.1419031E-02)
 number of electron     382.0000041 magnetization       0.0122710
 augmentation part       54.1705352 magnetization       0.0040315

 Broyden mixing:
  rms(total) = 0.70951E-01    rms(broyden)= 0.70943E-01
  rms(prec ) = 0.73398E-01
  weight for this iteration     100.00

 eigenvalues of (default mixing * dielectric matrix)
  average eigenvalue GAMMA=   6.0620
 45.2461 27.2832 15.4045  7.7012  5.2011  2.8978  2.8978  1.6242  1.6242  1.4027
  1.1418  1.1418  1.1794  0.9365  0.9365  0.9906  0.9906  0.9155  0.9155  0.8098

 Free energy of the ion-electron system (eV)
  ---------------------------------------------------
  alpha Z        PSCENC =       462.75907254
  Ewald energy   TEWEN  =     89454.77333750
  -Hartree energ DENC   =   -122258.16707820
  -exchange      EXHF   =         0.00000000
  -V(xc)+E(xc)   XCENC  =      1316.28922135
  PAW double counting   =     45908.35196405   -45976.25802639
  entropy T*S    EENTRO =        -0.00000000
  eigenvalues    EBANDS =     -5713.88402545
  atomic energy  EATOM  =     36534.69703334
  Solvation  Ediel_sol  =         0.00000000
  ---------------------------------------------------
  free energy    TOTEN  =      -271.43850125 eV

  energy without entropy =     -271.43850125  energy(sigma->0) =     -271.43850125


[...]
   17       -0.000   0.000   0.000   0.000
   18       -0.000  -0.000   0.000  -0.000
   19        0.000   0.000   0.000   0.000
   20       -0.000  -0.000   0.000  -0.000
   21        0.000   0.000   0.000   0.000
   22       -0.000   0.000   0.000   0.000
   23        0.000   0.000   0.000   0.000
   24        0.000   0.000   0.000   0.000
   25       -0.000  -0.000  -0.000  -0.000
   26        0.000   0.000   0.000   0.000
   27       -0.000  -0.000  -0.000  -0.000
   28       -0.000  -0.000  -0.000  -0.000
   29       -0.000  -0.000  -0.000  -0.000
   30        0.000   0.000  -0.000  -0.000
   31       -0.000  -0.000  -0.000  -0.000
   32       -0.000  -0.000  -0.000  -0.000
   33       -0.000  -0.000  -0.000  -0.000
   34       -0.000  -0.000  -0.000  -0.000
   35       -0.000  -0.000  -0.000  -0.000
   36       -0.000  -0.000  -0.000  -0.000
   37       -0.000  -0.000  -0.000  -0.000
   38       -0.000  -0.000   0.000   0.000
   39       -0.000  -0.000   0.000   0.000
   40       -0.000   0.000   0.000   0.000
   41       -0.000  -0.000   0.000   0.000
   42       -0.000  -0.000   0.000   0.000
   43       -0.000  -0.000   0.000   0.000
--------------------------------------------------
tot         -0.000   0.000   0.000   0.001
 
    CHARGE:  cpu time    0.1268: real time    0.1272
    FORLOC:  cpu time    0.0299: real time    0.0300
    FORNL :  cpu time    1.9762: real time    1.9822
    STRESS:  cpu time    3.1678: real time    3.1783
    FORCOR:  cpu time    0.2643: real time    0.2666
    FORHAR:  cpu time    0.0616: real time    0.0619
    MIXING:  cpu time    0.0196: real time    0.0196
    OFIELD:  cpu time    0.0001: real time    0.0002

 ---------------------------------------------------------------------------------------------

         DFTD3 V3.0 Rev 1        
 IVDW         = 12
 DF pbe       
 parameters
 VDW_S6       =    1.0000
 VDW_S8       =    0.7875
 VDW_A1       =    0.4289
 VDW_A2       =    4.4407
 k1-k3        =   16.0000    1.3333   -4.0000
 VDW_RADIUS   =   50.2022 A
 VDW_CNRADIUS =   21.1671 A
 Edisp (eV)  -14.53796

 E6    (eV) :    -8.2265
 E8    (eV) :    -6.3114
 % E8        : 43.41
    FORVDW:  cpu time    0.1034: real time    0.1044

  FORCE on cell =-STRESS in cart. coord.  units (eV):
  Direction    XX          YY          ZZ          XY          YZ          ZX
  --------------------------------------------------------------------------------------
  Alpha Z   462.75907   462.75907   462.75907
  Ewald  108513.63465109303.86008************     2.46824    29.61614    61.57789
  Hartree116255.83934117029.53466************    -3.59926    18.16084    51.45762
  E(xc)   -1714.25544 -1714.11146 -1717.35457    -0.00379     0.00790    -0.02031
  Local  ************************232479.41827     2.16584   -46.28031  -113.20678
  n-local  1298.25495  1302.42424  1346.97619     0.32877     0.07435     0.40843
  augment  1227.29150  1230.36061  1225.52886    -0.48512    -0.70688    -0.48035
  Kinetic  5596.41383  5612.04017  5587.01713    -0.40370    -0.86040    -0.54438
  Fock        0.00000     0.00000     0.00000     0.00000     0.00000     0.00000
  vdW       -14.70474   -14.73679    -5.98435    -0.00071     0.00469    -0.00607
  -------------------------------------------------------------------------------------
  Total      -0.25724     4.29564    -5.78067     0.47027     0.01632    -0.81396
  in kB      -0.19653     3.28195    -4.41654     0.35929     0.01247    -0.62188
  external pressure =       -0.44 kB  Pullay stress =        0.00 kB


 VOLUME and BASIS-vectors are now :
 -----------------------------------------------------------------------------
  energy-cutoff  :      450.00
  volume of cell :     2097.04
      direct lattice vectors                 reciprocal lattice vectors
    11.007200000  0.000000000  0.000000000     0.090849626  0.000009197  0.000000000
    -0.000965000  9.532200000  0.000000000     0.000000000  0.104907576  0.000000000
     0.000000000  0.000000000 19.986500000     0.000000000  0.000000000  0.050033773

  length of vectors
    11.007200000  9.532200049 19.986500000     0.090849626  0.104907576  0.050033773


 FORCES acting on ions
    electron-ion (+dipol)            ewald-force                    non-local-force                 convergence-correction
 -----------------------------------------------------------------------------------------------
   -.164E+03 0.452E+02 -.749E+03   0.166E+03 -.450E+02 0.752E+03   -.170E+01 -.101E+00 -.362E+01   -.332E-03 0.186E-03 0.116E-01
   0.224E+03 0.362E+01 -.695E+03   -.226E+03 -.362E+01 0.697E+03   0.164E+01 -.130E+00 -.299E+01   0.133E-03 0.100E-02 0.132E-01
   -.137E+02 0.761E+01 0.111E+04   0.140E+02 -.764E+01 -.111E+04   0.253E+00 -.145E+00 0.449E+01   0.561E-04 -.207E-02 -.533E-02
   0.252E+02 0.477E+01 0.114E+04   -.250E+02 -.480E+01 -.114E+04   0.384E+00 -.203E+00 0.404E+01   0.460E-02 0.153E-02 -.339E-02
   0.417E+02 0.415E+02 -.574E+03   -.412E+02 -.413E+02 0.575E+03   -.398E-01 -.326E+00 -.735E+00   0.369E-02 -.118E-02 0.565E-02
   -.933E+02 -.152E+01 -.571E+03   0.936E+02 0.154E+01 0.572E+03   0.217E+00 -.283E+00 -.112E+01   -.241E-02 0.101E-02 0.541E-02
   0.258E+01 0.115E+02 0.117E+04   -.229E+01 -.115E+02 -.117E+04   -.164E-02 0.439E-01 0.442E+01   0.407E-02 -.267E-02 0.591E-03
   -.275E+02 0.593E+01 0.115E+04   0.278E+02 -.587E+01 -.115E+04   0.176E+00 -.404E+00 0.455E+01   -.329E-02 0.257E-02 0.194E-02
   -.169E+03 -.424E+02 -.737E+03   0.172E+03 0.422E+02 0.740E+03   -.134E+01 0.247E+00 -.413E+01   -.190E-02 0.668E-03 0.912E-02
   0.150E+03 -.158E+03 -.758E+03   -.150E+03 0.161E+03 0.762E+03   0.741E+00 -.124E+01 -.406E+01   -.238E-03 -.319E-02 0.921E-02
   -.628E+01 -.401E+01 0.110E+04   0.668E+01 0.403E+01 -.111E+04   -.284E+00 -.175E+00 0.488E+01   -.180E-02 0.266E-02 -.275E-02
   0.243E+02 -.166E+02 0.111E+04   -.242E+02 0.167E+02 -.112E+04   0.671E-01 0.152E+00 0.398E+01   0.267E-02 0.361E-03 -.339E-02
   0.462E+02 -.373E+02 -.576E+03   -.457E+02 0.372E+02 0.577E+03   -.313E+00 -.454E+00 -.588E-01   0.335E-02 0.284E-02 0.246E-02
   -.156E+03 -.166E+03 -.659E+03   0.157E+03 0.168E+03 0.662E+03   -.588E+00 -.104E+01 -.309E+01   -.443E-02 -.380E-02 0.487E-02
   0.973E+00 -.522E+01 0.116E+04   -.668E+00 0.521E+01 -.116E+04   0.182E+00 -.492E+00 0.395E+01   0.354E-02 0.498E-02 0.342E-02
   -.148E+02 -.553E+01 0.113E+04   0.151E+02 0.546E+01 -.114E+04   -.874E+00 -.179E+00 0.445E+01   -.774E-02 -.270E-02 0.411E-03
   -.423E+02 -.185E+01 -.822E+03   0.424E+02 0.187E+01 0.825E+03   -.184E+00 0.156E+00 -.454E+01   0.411E-02 -.708E-03 0.723E-02
   0.159E+03 0.153E+03 -.743E+03   -.159E+03 -.155E+03 0.746E+03   0.851E-01 0.148E+01 -.376E+01   -.611E-03 0.182E-02 0.107E-01
   -.196E+02 -.385E+01 0.110E+04   0.200E+02 0.390E+01 -.110E+04   0.275E+00 0.503E+00 0.409E+01   0.270E-02 -.537E-03 -.576E-02
   0.278E+02 0.979E+01 0.111E+04   -.277E+02 -.991E+01 -.112E+04   -.280E+00 0.810E-01 0.423E+01   0.903E-03 -.216E-02 -.508E-02
   0.154E+03 0.579E+01 -.658E+03   -.156E+03 -.569E+01 0.660E+03   0.136E+01 -.197E+00 -.182E+01   0.654E-02 -.891E-03 0.466E-02
   -.143E+03 0.166E+03 -.648E+03   0.144E+03 -.168E+03 0.650E+03   -.143E+01 0.723E+00 -.220E+01   -.441E-02 0.255E-02 0.857E-02
   0.678E+01 -.430E+01 0.114E+04   -.647E+01 0.433E+01 -.114E+04   -.232E-01 0.254E+00 0.433E+01   0.452E-02 -.220E-02 0.783E-04
   -.103E+02 -.182E+01 0.113E+04   0.108E+02 0.171E+01 -.114E+04   -.938E+00 0.781E+00 0.393E+01   -.746E-02 -.109E-03 -.226E-02
   0.454E+02 -.390E+00 0.508E+03   -.463E+02 0.396E+00 -.509E+03   -.538E+00 0.546E-01 0.188E+01   0.210E-02 0.457E-02 0.297E-01
   0.162E+03 0.691E+02 0.728E+03   -.162E+03 -.694E+02 -.730E+03   -.357E+00 0.549E-01 0.171E+01   0.182E-01 0.892E-03 0.130E-01
   -.219E+02 -.146E+00 0.840E+03   0.217E+02 0.284E+00 -.843E+03   -.131E+00 0.155E+00 0.209E+01   0.514E-02 0.520E-02 0.168E-01
   -.148E+03 0.417E+02 0.710E+03   0.148E+03 -.415E+02 -.712E+03   -.674E+00 0.542E+00 0.141E+01   -.209E-01 0.904E-02 0.157E-01
   0.261E+02 -.503E+02 0.423E+03   -.267E+02 0.502E+02 -.423E+03   -.335E+00 -.518E+00 0.123E+01   0.328E-02 -.277E-02 0.232E-01
   0.153E+03 -.685E+02 0.715E+03   -.154E+03 0.688E+02 -.717E+03   -.313E+00 0.179E-01 0.229E+01   0.219E-01 0.312E-02 0.973E-02
   -.312E+02 -.787E+02 0.767E+03   0.313E+02 0.790E+02 -.769E+03   0.259E+00 0.156E+00 0.195E+01   -.401E-02 -.831E-02 0.305E-02
   -.164E+03 -.656E+02 0.710E+03   0.164E+03 0.657E+02 -.711E+03   0.359E-01 0.311E-01 0.177E+01   -.210E-01 -.514E-02 0.140E-01
   0.738E+01 0.524E+02 0.454E+03   -.773E+01 -.525E+02 -.455E+03   -.763E-01 0.380E+00 0.947E+00   0.685E-02 -.259E-02 0.214E-01
   0.149E+03 0.458E+01 0.508E+03   -.149E+03 -.460E+01 -.509E+03   0.156E-01 -.315E+00 0.172E+01   0.108E-01 -.277E-02 0.134E-01
   -.189E+02 0.729E+02 0.778E+03   0.191E+02 -.730E+02 -.780E+03   0.149E+00 0.973E-01 0.152E+01   -.290E-02 0.193E-02 0.677E-02
   -.132E+03 0.228E+02 0.531E+03   0.133E+03 -.232E+02 -.531E+03   -.459E+00 -.549E+00 0.266E+01   -.210E-01 -.350E-02 0.161E-01
   0.250E+03 0.124E+03 -.186E+04   -.250E+03 -.124E+03 0.186E+04   0.262E+00 0.153E+00 -.251E+01   -.523E-02 -.253E-02 0.193E-01
   0.130E+02 -.117E+02 -.187E+04   -.133E+02 0.120E+02 0.188E+04   -.462E-01 -.606E-01 -.353E+01   0.373E-02 -.345E-03 0.721E-02
   -.263E+03 0.121E+03 -.187E+04   0.264E+03 -.120E+03 0.187E+04   -.432E+00 -.182E+00 -.245E+01   0.207E-03 0.360E-03 0.152E-01
   0.231E+03 -.121E+03 -.187E+04   -.230E+03 0.121E+03 0.187E+04   0.272E-01 -.210E+00 -.229E+01   -.452E-02 0.224E-02 0.177E-01
   0.790E+01 -.130E+03 -.187E+04   -.808E+01 0.131E+03 0.187E+04   -.131E+00 -.290E+00 -.304E+01   -.207E-02 0.145E-02 0.968E-02
   -.257E+03 -.124E+03 -.186E+04   0.257E+03 0.124E+03 0.187E+04   -.446E+00 -.190E+00 -.253E+01   0.354E-02 -.112E-02 0.113E-01
   -.497E+01 0.138E+03 -.185E+04   0.527E+01 -.138E+03 0.186E+04   -.297E+00 0.244E+00 -.277E+01   0.400E-03 -.208E-02 0.115E-01
 -----------------------------------------------------------------------------------------------
   0.610E+01 0.138E+01 -.216E+02   -.817E-13 0.171E-12 -.227E-12   -.611E+01 -.138E+01 0.213E+02   0.924E-03 -.240E-02 0.346E+00
 
 
 POSITION                                       TOTAL-FORCE (eV/Angst)
 -----------------------------------------------------------------------------------
      0.95986      1.52673     11.42526         0.664147      0.137552     -0.541660
      3.66495      3.15382     11.47666        -0.167278     -0.134839     -0.486958
      0.93105      1.56724      8.23863         0.501684     -0.179105      0.029889
      3.68428      3.16961      8.23003         0.578216     -0.228557     -0.058947
      6.44722      1.57483     11.42125         0.393579     -0.097941      0.053440
      9.21088      3.16761     11.44557         0.429071     -0.270417     -0.231426
      6.44393      1.55783      8.23545         0.296895      0.049500      0.224366
      9.17671      3.17342      8.25622         0.408278     -0.348084      0.228876
      0.93213      4.73328     11.43700         0.929481     -0.005970     -0.867336
      3.67246      6.30126     11.44713         0.147285      1.007896     -0.722300
      0.94861      4.74470      8.24402         0.112546     -0.158162      0.245453
      3.70910      6.29516      8.26083         0.151418      0.264516     -0.368461
      6.44431      4.75696     11.40457         0.145123     -0.546494      0.501918
      9.17935      6.31793     11.47166         0.779771      1.099616     -0.796252
      6.42380      4.76546      8.27362         0.492322     -0.498232     -0.360586
      9.24230      6.34201      8.24510        -0.597960     -0.248747      0.124938
      0.96804      7.89438     11.38667        -0.101769      0.170307     -0.820214
      3.71671      9.51385     11.40176        -0.328403     -0.750521     -0.457098
      0.92344      7.85230      8.24434         0.650581      0.548391     -0.505807
      3.73228      9.52873      8.25406        -0.112941     -0.039114     -0.232001
      6.44265      7.91239     11.41357        -0.418359     -0.088451      0.147618
      9.22246      0.00746     11.41310         0.051314     -1.246847     -0.173557
      6.42225      7.88603      8.25532         0.298681      0.278553     -0.062051
      9.23049      9.47969      8.26855        -0.519619      0.677711     -0.374840
      1.91388      3.13742      9.77882        -1.461246      0.064417      1.157963
      4.64058      1.59243      9.79602        -0.777327     -0.276723     -0.297685
      7.36649      3.13906      9.80642        -0.370097      0.297042     -0.487322
     10.15189      1.54464      9.80808        -0.572744      0.781244     -0.413119
      1.89818      6.33086      9.78635        -0.976526     -0.609593      1.229257
      4.62724      4.72037      9.78640        -0.893608      0.321636      0.543482
      7.34722      6.31886      9.79680         0.447359      0.458622     -0.110967
     10.10291      4.74440      9.80435         0.319172      0.080379     -0.055063
      1.87867      9.47746      9.77168        -0.415462      0.332324      0.885909
      4.60144      7.92056      9.78511         0.026691     -0.338285      1.059186
      7.34154      9.49807      9.80316         0.352416     -0.012356     -0.663889
     10.12582      7.94175      9.74596         0.107516     -0.961613      2.328224
      4.62259      1.54696     12.38496         0.118176      0.299007      0.286073
      7.41216      3.12707     12.44689        -0.340814      0.223067      0.066060
     10.09264      1.55858     12.42901        -0.096560      0.353464     -0.082163
      4.58006      4.73971     12.41639         0.475539     -0.210368      0.032178
      7.37049      6.31149     12.44534        -0.302985      0.016005     -0.068125
     10.12612      4.75930     12.43347        -0.422328     -0.288567      0.013112
      7.36501      9.52012     12.39895        -0.001239      0.077739      0.079884
 -----------------------------------------------------------------------------------
    total drift:                               -0.002392      0.006216      0.006719


--------------------------------------------------------------------------------------------------------



  FREE ENERGIE OF THE ION-ELECTRON SYSTEM (eV)
  ---------------------------------------------------
  free  energy   TOTEN  =      -285.97487723 eV

  energy  without entropy=     -285.97487723  energy(sigma->0) =     -285.97487723
 


--------------------------------------------------------------------------------------------------------


    POTLOK:  cpu time    0.5938: real time    0.5955


--------------------------------------------------------------------------------------------------------


     LOOP+:  cpu time  261.5264: real time  262.5297
    4ORBIT:  cpu time    0.0000: real time    0.0000
 


 total charge     
 
# of ion       s       p       d       tot
------------------------------------------
    1        1.344   2.349   0.000   3.692
    2        1.324   2.379   0.000   3.703
    3        1.362   2.342   0.000   3.704
    4        1.362   2.349   0.000   3.712
    5        1.307   2.405   0.000   3.712
    6        1.308   2.394   0.000   3.702
    7        1.362   2.341   0.000   3.703
    8        1.362   2.339   0.000   3.701
    9        1.343   2.348   0.000   3.691
   10        1.343   2.357   0.000   3.700
   11        1.363   2.335   0.000   3.698
   12        1.362   2.356   0.000   3.718
   13        1.309   2.395   0.000   3.704
   14        1.327   2.371   0.000   3.699
   15        1.362   2.355   0.000   3.716
   16        1.362   2.343   0.000   3.705
   17        1.363   2.329   0.000   3.692
   18        1.342   2.363   0.000   3.706
   19        1.362   2.354   0.000   3.716
   20        1.361   2.350   0.000   3.711
   21        1.326   2.378   0.000   3.704
   22        1.326   2.384   0.000   3.710
   23        1.362   2.345   0.000   3.707
   24        1.361   2.355   0.000   3.716
   25        2.276   6.205   3.928  12.408
   26        2.277   6.211   3.988  12.476
   27        2.272   6.207   3.999  12.479
   28        2.276   6.210   3.982  12.468
   29        2.284   6.216   3.943  12.443
   30        2.280   6.216   4.001  12.497
   31        2.276   6.210   3.995  12.482
   32        2.275   6.208   3.970  12.453
   33        2.276   6.206   3.917  12.399
   34        2.279   6.209   3.946  12.433
   35        2.272   6.205   3.980  12.456
   36        2.285   6.213   3.965  12.463
   37        0.411   0.514   8.950   9.874
   38        0.386   0.474   8.913   9.773
   39        0.393   0.488   8.937   9.818
   40        0.402   0.498   8.942   9.842
   41        0.394   0.486   8.930   9.811
   42        0.402   0.503   8.941   9.846
   43        0.394   0.485   8.926   9.806
--------------------------------------------------
tot         62.414 134.579 110.153 307.146
 


 magnetization (x)
 
# of ion       s       p       d       tot
------------------------------------------
    1        0.000   0.000   0.000   0.000
    2       -0.000  -0.000   0.000  -0.000
    3        0.000   0.000   0.000   0.000
    4       -0.000  -0.000   0.000  -0.000
    5        0.000   0.000   0.000   0.000
    6        0.000   0.000   0.000   0.000
    7        0.000   0.000   0.000   0.000
    8        0.000   0.000   0.000   0.000
    9       -0.000   0.000   0.000   0.000
   10       -0.000   0.000   0.000   0.000
   11        0.000   0.000   0.000   0.000
   12        0.000   0.000   0.000   0.000
   13        0.000   0.000   0.000   0.000
   14       -0.000   0.000   0.000   0.000
   15        0.000   0.000   0.000   0.000
   16        0.000   0.000   0.000   0.000
   17       -0.000   0.000   0.000   0.000
   18       -0.000  -0.000   0.000  -0.000
   19        0.000   0.000   0.000   0.000
   20       -0.000  -0.000   0.000  -0.000
   21        0.000   0.000   0.000   0.000
   22       -0.000   0.000   0.000   0.000
   23        0.000   0.000   0.000   0.000
   24        0.000   0.000   0.000   0.000
   25       -0.000  -0.000  -0.000  -0.000
   26        0.000   0.000   0.000   0.000
   27       -0.000  -0.000  -0.000  -0.000
   28       -0.000  -0.000  -0.000  -0.000
   29       -0.000  -0.000  -0.000  -0.000
   30        0.000   0.000  -0.000  -0.000
   31       -0.000  -0.000  -0.000  -0.000
   32       -0.000  -0.000  -0.000  -0.000
   33       -0.000  -0.000  -0.000  -0.000
   34       -0.000  -0.000  -0.000  -0.000
   35       -0.000  -0.000  -0.000  -0.000
   36       -0.000  -0.000  -0.000  -0.000
   37       -0.000  -0.000  -0.000  -0.000
   38       -0.000  -0.000   0.000   0.000
   39       -0.000  -0.000   0.000   0.000
   40       -0.000   0.000   0.000   0.000
   41       -0.000  -0.000   0.000   0.000
   42       -0.000  -0.000   0.000   0.000
   43       -0.000  -0.000   0.000   0.000
--------------------------------------------------
tot         -0.000   0.000   0.000   0.001
 

 total amount of memory used by VASP MPI-rank0    68622. kBytes
=======================================================================

   base      :      30000. kBytes
   nonl-proj :       4256. kBytes
   fftplans  :       7095. kBytes
   grid      :      19382. kBytes
   one-center:        124. kBytes
   wavefun   :       7765. kBytes
 
  
  
 General timing and accounting informations for this job:
 ========================================================
  
                  Total CPU time used (sec):      264.619
                            User time (sec):      263.179
                          System time (sec):        1.440
                         Elapsed time (sec):      265.762
  
                   Maximum memory used (kb):      129832.
                   Average memory used (kb):           0.
  
                          Minor page faults:       163568
                          Major page faults:            0
                 Voluntary context switches:          852
