 -9.6084289e-03   9.6279562e-02
 -5.3582811e-01   3.7608404e-02
 -6.4890450e-01   2.7290653e-02
 -4.0002946e-02   7.9235218e-02
 -2.1016121e+00   1.9169062e-02
  2.8200167e-01   6.6754155e-02
  9.7914642e-01   6.1836258e-02
  1.4617604e+00   7.2215602e-02
  4.6481729e-01   3.8175851e-02
  1.7162288e+00   5.1660433e-02
  2.0513489e+00   4.1982040e-02
 -1.6112989e+00   4.0436264e-02
 -2.4263258e+00   6.4942777e-02
 -1.1125498e+00   2.2853011e-02
 -2.7011019e-01   5.4487135e-02
  1.3701624e-01   6.1393049e-02
  1.3550063e+00   3.7944451e-02
  4.4516855e-01   2.6079670e-02
  2.7483529e-01   6.4338468e-02
 -7.2504991e-01   5.8027349e-02
 -2.2290807e+00   6.5137565e-02
  5.9029263e-01   3.5537064e-02
  1.2448400e-01   3.9977588e-02
  5.9459507e-01   2.8466376e-02
 -3.5584268e-01   4.9588788e-02
 -4.7314230e-01   6.0125332e-02
 -1.4112236e+00   7.3312774e-02
  1.3552462e-01   3.1431824e-02
 -4.7280258e-01   1.1530956e-02
  1.1565520e+00   6.8578094e-02
  1.0086123e+00   7.6400511e-02
 -1.0263244e+00   8.2880802e-02
 -7.9211175e-01   5.8100924e-02
 -2.0260300e-01   4.8506197e-02
  1.2515291e+00   8.6113557e-02
 -1.2771455e+00   8.0848739e-02
  4.0896285e-01   6.2815301e-02
  2.2540317e-01   6.9271609e-02
  1.0812801e+00   2.6124962e-02
 -2.0736380e-01   2.7804609e-02
 -2.7647808e-01   4.4809412e-02
 -2.4341710e+00   7.3623322e-02
  3.7506846e-01   4.6242725e-02
 -3.6512142e-01   8.7861001e-02
  2.9083812e-01   5.6425579e-02
 -4.6046311e-01   4.5311183e-02
 -2.1122861e+00   6.8551406e-02
  2.0822110e+00   5.9764199e-02
 -1.4028022e+00   9.6821100e-02
  1.8962201e+00   4.3524712e-02
  1.1007847e+00   7.5278252e-02
  2.1349092e+00   5.3609658e-02
 -7.5384182e-01   6.1300889e-02
 -2.5472319e-02   4.2409953e-02
  2.7048066e-01   5.4224737e-02
  5.7764888e-01   9.6423529e-02
 -1.4908060e+00   1.0000000e-01
  1.8439089e+00   5.0551292e-02
 -1.7549964e+00   2.8561544e-02
  7.8479564e-01   5.1155970e-02
 -1.3375869e+00   2.8308544e-02
  2.0596941e+00   3.0491661e-02
  9.9900925e-01   9.9586047e-02
  3.6997461e-01   8.2363866e-02
  1.6899222e+00   6.6440746e-02
 -1.2339710e+00   6.3351728e-02
 -9.7380149e-01   8.9058526e-02
  1.7310817e+00   7.9669610e-02
  1.5233542e+00   6.9115333e-02
 -3.5157460e-01   7.3424011e-02
  1.0073889e+00   2.8820341e-02
  1.3571012e+00   7.2817951e-02
 -3.4064516e-01   7.1185216e-02
 -1.3709273e+00   3.9702304e-02
 -1.6374651e+00   6.7736991e-02
  7.0289510e-01   6.2981792e-02
 -5.8338481e-01   9.9266015e-02
 -9.0697277e-01   3.8881790e-02
  9.7653085e-01   7.4675530e-02
  5.2144843e-01   3.1584430e-02
  3.8734648e-01   4.1975144e-02
 -2.0876452e-01   4.3423440e-02
 -3.8668323e-01   4.0909231e-02
  5.9572029e-01   5.0437320e-02
 -2.7572614e-01   6.5069810e-02
  1.3378121e-01   9.1957703e-02
  2.1532136e-01   6.2534213e-02
 -1.4344853e+00   3.3721521e-02
  3.8641986e-01   7.5668059e-02
 -7.5605810e-03   7.9791546e-02
  4.6932301e-01   3.1395916e-02
 -1.7178723e-01   3.8757086e-02
  1.5671165e+00   6.5724708e-02
  1.1088648e+00   4.6406303e-02
  7.3851639e-01   3.5184074e-02
 -3.3762738e-01   3.3547495e-02
 -2.6416867e+00   6.1953858e-02
 -1.4342922e-01   2.7196150e-02
  3.9350119e-01   5.3530224e-02
  6.5687293e-01   8.5906990e-02
  4.6767101e-01   8.1819028e-02
 -1.8109841e+00   3.3943281e-02
  9.8358482e-01   4.9300361e-02
  1.4226675e+00   4.3119062e-02
  4.1662067e-01   4.8650350e-02
 -4.4210267e-01   6.1312594e-02
 -1.6462737e+00   7.0962578e-02
  1.2080064e+00   1.6067507e-02
 -9.9179626e-01   2.9337307e-02
 -6.2431300e-01   8.2350865e-02
 -1.7077680e+00   3.4387901e-02
 -6.9633889e-01   2.4514697e-02
  4.6601754e-01   3.8888264e-02
  3.8307229e-01   2.4332106e-02
 -1.1506127e+00   4.2648096e-02
  1.7460689e-02   4.4192217e-02
  2.6267368e-01   7.7808931e-02
  3.6435169e-01   9.2805639e-02
 -7.6126205e-03   9.0339251e-02
 -8.9372462e-01   4.4287883e-02
  6.5164700e-02   6.6173062e-02
 -7.1405995e-01   3.2428443e-02
 -7.7732712e-01   7.5092323e-02
  6.9870687e-01   4.8383422e-02
 -1.1660367e-01   9.2922598e-03
 -1.5705206e+00   2.3666484e-02
 -5.5591917e-01   9.5962450e-02
  1.1741838e+00   6.1415255e-02
  1.5347688e+00   3.4791760e-02
 -5.6320637e-01   4.9715962e-02
  1.3652923e+00   6.3982904e-02
  5.7882447e-02   1.7412758e-02
 -1.2935418e+00   4.4871651e-02
  1.5986775e+00   2.3350675e-02
 -3.7553090e-01   7.7979706e-02
 -1.0847540e+00   5.8778465e-02
 -6.5391678e-01   9.4941296e-02
  2.0855765e+00   6.6291504e-02
  4.3594468e-02   8.1775308e-02
 -3.5257632e-01   7.7837266e-02
 -1.4112158e+00   2.9300688e-02
 -8.5552990e-01   4.6599686e-02
 -8.9450920e-01   7.5241670e-02
  1.6138098e-01   4.2681526e-02
  1.4020891e+00   4.4889800e-02
 -3.6385196e-01   9.7768225e-02
  2.2454379e+00   4.9790435e-02
  1.7412165e-01   3.1798046e-02
 -2.0603378e-01   6.3321866e-02
  1.4848675e+00   8.0527142e-02
 -4.8226774e-02   6.5930173e-02
  2.8144974e-01   4.0282704e-02
  1.1448282e+00   6.1668519e-02
  6.3777894e-01   4.9588308e-02
 -9.0558749e-01   8.1485145e-02
  4.0667024e-02   6.5578885e-02
  5.8121401e-01   5.0042011e-02
  1.1644794e+00   6.3412756e-02
  1.8605485e+00   3.2886494e-02
  1.3440613e+00   5.3274103e-02
 -8.0181219e-02   4.4316199e-02
  4.6237594e-01   5.8299869e-02
  3.7922481e-01   4.8494134e-02
  6.4052898e-01   2.5407312e-02
  2.3562100e+00   4.5675751e-02
  6.4895934e-01   2.4269337e-02
 -1.6164955e-02   6.0425308e-02
  3.4063468e+00   4.5114774e-02
  8.2470864e-01   5.4840561e-02
 -5.6819594e-01   8.3319575e-02
 -7.7317429e-01   9.9019244e-02
  3.5046390e-01   7.2060831e-02
  2.5286698e+00   2.9858219e-02
  1.9464147e-01   5.0127070e-02
 -4.6663955e-01   2.6660597e-02
 -2.1140917e-01   4.2049509e-02
  3.0422609e+00   8.9679278e-02
 -6.8322843e-01   4.0611416e-02
  1.4163793e+00   1.7177636e-02
  7.9252040e-01   5.0656732e-02
  7.7144146e-02   6.7689836e-02
  7.8280598e-01   3.6580730e-02
  1.3195723e+00   3.4744658e-02
  8.4688926e-01   2.8885920e-02
 -2.3171546e+00   3.3216748e-02
  1.9676056e+00   2.8180480e-02
  6.9864851e-01   8.0134340e-02
  1.1467377e+00   7.1093120e-02
 -1.4089662e-01   3.5283793e-02
  2.2362571e+00   5.1462457e-02
  1.3993725e+00   3.9615538e-02
  4.0618557e-01   4.3462228e-02
 -9.2688262e-01   2.3608252e-02
  1.8099701e+00   2.5841141e-02
 -2.5013559e+00   4.6541374e-02
 -3.3658290e-01   5.0179351e-02
  8.2834411e-01   6.9387935e-02
  1.9348453e+00   5.1252589e-02
 -6.4304940e-02   4.2975996e-02
 -2.4402087e+00   9.9112697e-02
  1.0628205e-01   1.3130728e-02
 -7.5489062e-01   5.7559989e-02
 -2.2762029e+00   5.4362535e-02
 -6.1742133e-01   3.8614769e-02
  1.4617541e+00   5.3309031e-02
  6.4845657e-01   9.6118972e-02
  2.2057526e-01   8.9954250e-02
 -9.3800199e-01   6.0920112e-02
 -1.8996941e+00   2.8516775e-02
  9.1680996e-02   4.9261924e-02
 -1.8671824e-01   4.8801351e-02
  8.9783800e-01   1.7565472e-02
 -9.8797411e-01   4.1788816e-02
 -2.9412729e-01   5.2062854e-02
 -1.6452736e+00   3.9064616e-02
  2.3621997e-01   4.8882019e-02
 -7.2343880e-01   9.9679761e-02
  1.5244876e+00   4.6488538e-02
  1.4794487e-01   5.8186486e-02
 -5.8190656e-01   5.2277379e-02
  4.7453633e-01   5.4337788e-02
  1.9414438e+00   7.9918571e-02
 -1.7727998e+00   7.1832528e-03
 -2.2221766e-03   4.6411972e-02
 -2.5215304e+00   6.9444723e-02
 -3.3125780e+00   4.9132805e-02
  1.0580062e+00   9.8528296e-02
 -9.2004961e-01   9.3778670e-02
 -2.9310304e-01   7.2349727e-02
 -1.2511283e+00   9.6501380e-02
 -3.3707313e-02   4.9523443e-02
 -1.7599463e-01   7.6060787e-02
  1.2814386e+00   4.5590110e-02
 -8.3412689e-01   2.4808627e-02
 -1.4077641e+00   4.6493378e-02
 -4.8575839e-01   4.5135193e-02
 -5.7855684e-01   4.5318864e-02
 -2.2361491e+00   4.9518242e-02
 -1.3071261e-01   6.0240086e-02
  1.2312374e+00   2.8968850e-02
 -3.3755729e-01   4.8276201e-02
  4.7882405e-01   2.7077347e-02
 -2.3286614e-01   4.3894205e-02
  1.5388064e-01   4.0017527e-02
  9.9868548e-01   4.9721919e-02
 -2.2756248e+00   5.7328418e-02
 -7.6322907e-01   7.8332692e-02
  1.2308321e+00   4.5661964e-02
  1.5841361e+00   5.9806958e-02
 -8.7614435e-01   7.0456751e-02
 -1.1542237e+00   3.9608609e-02
  6.2749833e-02   3.7241787e-02
 -9.9401706e-01   3.5154909e-02
 -8.9186037e-01   5.5065837e-02
  1.8930897e+00   9.0787411e-02
  8.2903850e-01   8.8005044e-02
 -1.5701767e+00   4.6385687e-02
 -1.2698877e-01   7.2803840e-02
  1.6963556e+00   4.9828332e-02
  7.6147348e-01   7.7372275e-02
  2.0360461e-01   5.6265716e-02
 -2.2598200e+00   3.8518775e-02
  4.1394797e-01   2.8516151e-02
 -1.3171013e-01   2.3697224e-02
 -1.8183357e+00   8.3174527e-02
 -3.4791625e-01   5.0291795e-02
 -5.3505212e-01   1.4224862e-02
  1.0432925e+00   2.9571086e-02
  1.2135198e-01   4.3304879e-02
 -4.6273822e-01   7.0147663e-02
 -5.9432909e-02   4.3098662e-02
  1.1397657e+00   2.3665253e-02
 -3.5256892e-01   4.5859907e-02
 -1.6219682e-01   2.9047577e-02
 -1.2778481e+00   4.5752443e-02
  1.6684525e+00   5.5761553e-02
 -4.0608263e-03   3.8327806e-02
  1.9516815e+00   2.5919154e-02
  9.3335748e-01   3.0771248e-02
 -6.8597496e-01   7.1242176e-02
 -2.2066779e+00   3.3775866e-02
 -2.0199130e+00   3.0356925e-02
  5.2315128e-01   5.9972171e-02
  7.6672232e-01   4.9056757e-02
 -5.7224695e-02   5.4331895e-02
 -1.8430903e+00   2.3519110e-02
 -2.0976760e+00   3.8216673e-02
 -1.5606854e+00   7.9256885e-02
 -3.5286281e-01   6.1127886e-02
  7.4252355e-01   8.9830615e-02
  4.4343504e-01   4.6356015e-02
 -1.5442734e+00   5.7281088e-02
 -1.0139903e-01   4.4317231e-02
  2.3962787e-01   2.3307079e-02
  1.2587508e+00   5.4988090e-02
 -1.3494158e+00   3.4444258e-02
 -8.1288159e-02   8.6537160e-02
  1.1286762e+00   7.1368389e-02
 -2.9696000e-01   9.0466842e-02
 -1.1940219e+00   5.7250600e-02
  1.6548032e-01   3.0340629e-02
  3.6904284e-01   4.6856020e-02
  1.4278693e+00   4.8683982e-02
 -8.5735500e-01   7.6940238e-02
 -2.2515680e-01   8.2200550e-02
  1.8801896e-01   9.1303311e-02
  2.1060741e-01   9.9689357e-02
  1.1053262e+00   8.9240111e-02
  7.0492673e-01   7.6631501e-02
 -1.6020828e+00   7.5843655e-02
  3.5564348e-01   8.6056352e-02
  1.4859671e-02   1.3790880e-02
  5.6409866e-01   8.4859714e-02
 -1.1807949e-01   3.7016805e-02
 -2.1717240e-01   3.5587944e-02
  2.4483585e+00   4.9885955e-02
 -2.1126860e-01   2.7290605e-02
 -8.8668197e-01   3.5775885e-02
  1.3390187e+00   3.8858533e-02
  3.7125653e-01   4.0003844e-02
 -1.7363784e-01   1.3764122e-02
 -7.3584646e-01   9.6311264e-02
  1.1249069e+00   4.5315746e-02
  3.0249530e-01   5.9598379e-02
  1.4860740e-01   5.2030530e-02
  1.6409690e+00   6.4040855e-02
  4.2367989e-01   3.6006566e-02
  1.4105943e+00   5.5794805e-02
  7.1358025e-01   6.5745093e-02
 -6.0541642e-01   3.2044582e-02
 -9.6506947e-01   3.2971207e-02
  3.4359223e-01   4.3807775e-02
  2.3200350e+00   6.5771885e-02
  3.0748923e+00   3.3891235e-02
  1.3968339e+00   3.3685878e-02
 -5.9498858e-01   6.6519469e-02
 -7.9457211e-01   5.6005944e-02
  2.5802231e-01   5.7573695e-02
 -5.9134442e-01   5.4370653e-02
  1.9071317e+00   8.8700898e-02
  4.9955845e-01   3.6576767e-02
 -1.9363314e-01   8.9723796e-02
 -4.1880071e-01   7.9726629e-02
  5.6661688e-02   5.2364521e-02
  1.3697742e+00   1.0000000e-01
 -1.9119899e-01   8.4816352e-02
 -6.9924456e-01   7.8955881e-02
  9.7328812e-01   5.5413306e-02
 -1.1705614e+00   9.9126235e-02
  1.5372108e+00   6.8543933e-02
 -1.0888875e+00   7.5586453e-02
  1.2804329e-01   9.3751766e-02
 -1.2444571e+00   3.6871921e-02
  1.3117868e+00   1.5227071e-02
 -4.5652303e-01   8.7901823e-02
  1.0341922e+00   4.2027712e-02
  1.5553141e+00   8.2225233e-02
 -6.3195162e-02   8.8113897e-02
 -1.4106292e+00   3.0748777e-02
 -1.1864076e-01   5.3850532e-02
 -1.6943650e+00   2.9662596e-02
 -7.3146617e-01   9.9152163e-02
 -6.1858243e-01   3.5397366e-02
 -9.5785119e-02   4.5158919e-02
 -5.2234018e-01   7.8922354e-02
  2.7239543e-01   7.5259469e-02
 -1.3919308e+00   7.7419654e-02
  2.2941866e+00   6.1601020e-02
  1.1598070e+00   3.1517576e-02
  1.0483874e+00   3.1008033e-02
  7.5325727e-01   2.9005004e-02
  1.2743443e+00   7.5785153e-02
  4.5528981e-01   7.7356867e-02
 -1.5088395e+00   3.7105285e-02
  8.3317292e-01   6.2533110e-02
 -9.0126568e-01   7.2593249e-02
  1.4358219e+00   9.8995365e-02
 -4.2655742e-01   4.3687936e-02
  1.0574235e+00   7.7554137e-02
 -7.0163727e-01   8.6487755e-02
 -7.6624292e-01   9.3346655e-02
  1.8362144e+00   7.3743813e-02
  7.3970199e-01   7.0714131e-02
  1.2056686e-01   6.6894613e-02
  1.4403787e-02   2.0033551e-02
  6.8789923e-01   7.6512039e-02
  2.4175537e-01   4.4890773e-02
  8.4393388e-01   8.9746177e-02
  1.3529227e+00   8.8172026e-02
 -9.7497058e-01   3.8887125e-02
  1.0779780e-01   2.3977045e-02
 -1.6078837e+00   6.9611073e-02
  3.0846772e-01   8.2287326e-02
  1.0494022e+00   3.8095117e-02
 -6.9157827e-01   4.7696348e-02
  7.9492438e-01   5.6884386e-02
  4.2776316e-03   2.0015351e-02
 -1.2993242e+00   2.7608586e-02
 -8.0433972e-03   5.9112269e-02
 -1.1751477e-01   7.1280152e-02
  1.3747809e+00   5.1308893e-02
  1.8397473e+00   9.6431233e-02
  1.1115261e+00   5.6788601e-02
 -1.1337764e+00   9.9297099e-02
  2.4588758e-01   5.0894614e-02
  7.2398043e-01   2.6176222e-02
 -1.2724549e+00   6.2613025e-02
  2.6276755e+00   7.6410256e-02
 -4.2107907e-01   3.3117715e-02
  1.3734956e+00   6.6395499e-02
  1.6746925e+00   3.4963079e-02
 -1.5802880e-01   5.3926136e-02
  2.1801808e-01   3.9100286e-02
  5.6391835e-01   7.1418121e-02
 -1.2609404e+00   2.2994502e-02
  7.1128830e-02   5.4454118e-02
  1.0891703e+00   5.5284187e-02
  5.6817162e-01   2.4117917e-02
  1.6589669e+00   5.3504415e-02
  9.8027968e-01   5.9188168e-02
  6.1673861e-02   3.0484173e-02
  1.7965122e+00   3.5250984e-02
 -1.3556756e+00   5.0454523e-02
  3.6858785e-01   4.7465336e-02
  2.6667571e-01   5.1106665e-02
 -2.8849006e+00   6.0148410e-02
  1.1495869e+00   6.6112645e-02
 -5.3681266e-01   3.7809394e-02
  3.2870252e+00   3.3911716e-02
  1.0683481e+00   6.7001119e-02
  4.7571200e-01   2.3536976e-02
  3.4789228e-01   6.6284567e-02
  1.4703867e+00   1.9679140e-02
 -1.7453514e+00   4.6901461e-02
  1.1722463e+00   4.3059126e-02
  3.8849223e-01   7.6029673e-02
  1.1620317e+00   3.5771199e-02
  9.3109733e-01   4.7813606e-02
 -2.0797014e+00   6.2302738e-02
 -4.5885932e-01   6.5978147e-02
  3.6065960e-01   6.4961493e-02
 -1.5685754e+00   5.3489976e-02
 -6.2868434e-01   3.4979288e-02
  1.5063453e-02   9.0082996e-03
 -4.8227005e-02   6.0609370e-02
 -5.6079686e-01   9.7334817e-02
 -1.3368012e-01   7.0663333e-02
 -2.0908575e+00   9.2330284e-02
 -5.3076256e-02   4.2705875e-02
 -1.0801239e-03   6.5803677e-02
 -1.1705439e+00   5.3835344e-02
 -4.4904225e-02   3.2669533e-02
 -5.6900227e-01   2.4080284e-02
  1.2211711e+00   3.5649598e-02
 -1.0580952e+00   4.6544190e-02
 -1.2244600e-02   5.7665821e-02
  2.5457376e-01   3.2236740e-02
  5.9977168e-01   9.4002783e-02
  2.1492782e+00   3.4282044e-02
  3.3724205e+00   3.7840445e-02
 -3.1352118e-01   6.1959926e-02
  2.8787887e-01   2.8562715e-02
  3.8227904e-01   4.5216937e-02
 -1.2651511e+00   3.8551990e-02
  1.2669024e+00   5.9795599e-02
 -2.5621164e-01   5.6577481e-02
  9.5099050e-01   3.5056964e-02
  4.2294613e-01   7.9414204e-02
  7.6598096e-01   8.0444656e-02
  3.9860669e-01   7.8897975e-02
  1.9319181e-01   5.2393701e-02
 -1.3416681e-01   2.4355462e-02
  1.2337253e+00   4.4218313e-02
 -1.6233017e-01   5.0890576e-02
  4.0784618e-01   8.2572468e-02
  4.7275513e-01   2.5599370e-02
  3.3553013e-01   8.6491786e-02
 -2.2326081e+00   7.0749447e-02
  3.0656603e-01   2.9325040e-02
 -2.1846034e-01   6.4876705e-02
 -1.5277602e-01   4.8551291e-02
  1.9923050e+00   4.3425862e-02
  1.6592921e+00   9.5311508e-02
  4.4455793e-01   4.9294390e-02
 -2.1351384e-01   6.6029854e-02
 -1.8676023e-01   7.3000550e-02
 -9.5327926e-01   3.6224924e-02
  3.5981256e-01   5.8465019e-02
  2.4518356e+00   3.6676418e-02
  7.8873140e-01   2.3603098e-02
 -1.8772531e+00   5.0994098e-02
 -3.8791871e-01   7.4330926e-02
 -2.4856165e-01   7.9713717e-02
 -3.9977959e-01   3.5929788e-02
  1.2687112e+00   4.9765691e-02
  1.9999954e-01   6.6677697e-02
 -8.5964382e-02   8.2844138e-02
 -2.3647428e+00   7.3792495e-02
  1.9396942e+00   4.8418455e-02
  2.7312794e+00   5.5575132e-02
 -1.5751673e+00   6.3623518e-02
 -1.6291394e+00   7.5829849e-02
  7.1877614e-02   4.6656534e-02
 -1.8595507e+00   2.4424741e-02
 -2.7842242e-01   5.4352079e-02
  3.8273842e+00   4.9880065e-02
  6.7673159e-01   4.0076945e-02
 -1.1267787e+00   5.2948803e-02
  1.3837883e-02   8.0864266e-02
 -1.8616425e-01   5.7426501e-02
  5.9229535e-01   7.8402154e-02
 -1.1844178e+00   2.9855762e-02
  1.0622016e+00   2.5285073e-02
  1.3881370e-01   1.7685279e-02
 -1.5442859e+00   8.6918354e-02
  3.9203852e-01   6.6558808e-02
 -3.3486387e-01   8.4362105e-02
  1.2483793e+00   5.9968539e-02
  3.8069782e-01   9.5622495e-02
 -1.4472648e+00   3.8720503e-02
 -8.4235579e-02   6.7440800e-02
  2.4940825e+00   2.0836560e-02
  1.2724861e+00   7.9382084e-02
  1.8367443e+00   5.7085857e-02
 -6.0977459e-01   7.9597369e-02
 -1.2439350e-01   2.5910025e-02
 -1.7956820e+00   3.3245884e-02
  3.7007621e-01   6.5833881e-02
 -7.1943301e-01   5.6288902e-02
  2.5099823e+00   6.9827460e-02
  3.4485182e-01   1.1108810e-02
  6.0980910e-01   4.0599305e-02
  2.4718213e+00   8.7761812e-02
  1.3502433e+00   5.3062100e-02
 -4.9665549e-01   9.1516241e-02
  8.5437495e-01   5.0006349e-02
 -7.5420511e-01   8.1708401e-02
  1.2866609e-01   6.3228078e-02
 -8.4713542e-01   5.2078497e-02
 -2.8309686e+00   2.3780167e-02
 -9.2789397e-02   5.2375108e-02
 -4.7286150e-01   3.1176673e-02
 -1.0382102e-01   6.1176736e-02
 -4.4751459e-01   4.7411576e-02
  6.7647821e-01   9.0805106e-02
  8.5838670e-01   8.7430507e-02
  7.0175117e-01   4.4238146e-02
  1.2604184e+00   5.0928064e-02
 -1.6867380e-01   5.2272148e-02
 -1.3120832e+00   8.5291706e-02
 -2.1374361e-01   1.8360715e-02
 -5.2531457e-01   5.9790425e-02
  1.7762393e+00   5.2879374e-02
  1.4586557e+00   4.5552887e-02
  7.6543325e-01   7.4926428e-02
 -3.8147745e-01   9.0845957e-02
  1.4364841e+00   8.2497716e-02
 -5.8985237e-02   5.1992252e-02
  5.2331191e-01   1.7537184e-02
  2.2706816e+00   6.4975262e-02
 -6.7223191e-01   4.9626753e-02
  3.8400135e+00   5.7669148e-02
 -2.8951877e-01   2.6730996e-02
 -5.2554065e-01   3.0492775e-02
  3.2952741e-01   6.2852204e-02
 -5.9138650e-01   1.9480607e-02
 -1.1237299e+00   9.8765507e-02
  1.1570724e+00   1.6805468e-02
  4.5289150e-01   4.1679367e-02
  2.0709202e-01   5.6168232e-02
 -7.4910462e-01   4.5249689e-02
  1.0241232e+00   5.9853520e-02
 -2.0075750e+00   7.2363414e-02
 -5.9662509e-01   3.0772803e-02
  1.8510638e+00   4.1193813e-02
 -2.5141837e-02   4.4364586e-02
  1.2976490e-01   2.1184372e-02
  1.4487994e+00   1.8461982e-02
 -1.4657068e+00   1.4296805e-02
 -1.2952624e-01   9.9103726e-02
 -1.0087302e-01   3.5191212e-02
  8.6444199e-02   5.7082761e-02
  8.9100957e-02   9.0699941e-02
  7.3412150e-02   3.0388314e-02
  1.2676661e+00   5.6924354e-02
 -4.2688835e-02   5.5795077e-02
  8.5025859e-01   3.9265711e-02
  1.9907425e-01   3.2426324e-02
 -1.7517412e-01   6.4598836e-02
 -3.4797683e-01   6.2777765e-02
 -2.5312951e-01   7.8420922e-02
 -1.7654713e+00   6.0367189e-02
 -3.4293890e-01   3.0499794e-02
  1.0352646e+00   1.8942440e-02
 -9.4400901e-01   6.1878368e-02
 -6.4814228e-01   7.6390274e-02
  8.2367784e-01   4.3979004e-02
  7.2019064e-01   7.7147931e-02
  6.8291599e-01   6.0142372e-02
  7.0138276e-01   4.0282585e-02
  5.4096054e-02   6.4212702e-02
  5.7106483e-01   5.0733604e-02
 -5.1293576e-01   7.8259185e-02
  1.0755242e+00   7.6091886e-02
  4.6913245e-01   4.5209825e-02
  3.2009080e-02   6.1407838e-02
  2.7082558e+00   9.1043524e-02
  3.3605474e-04   6.9394149e-02
 -1.0144563e+00   3.3208847e-02
 -6.8612024e-02   8.6864389e-02
  4.0316510e-01   7.2802626e-02
 -5.0938153e-01   5.6716170e-02
  1.4866240e+00   1.5962439e-02
  1.2861952e+00   2.6786245e-02
  8.6532438e-01   6.0710747e-02
 -9.2301214e-01   9.6449338e-02
 -3.6941311e-01   8.6448245e-02
  1.2073680e+00   9.2806809e-02
  1.2441469e+00   5.7075750e-02
  8.5923970e-02   2.3764867e-02
  1.4467301e+00   6.4442217e-02
 -3.2589668e-01   7.3486634e-02
  6.3092697e-01   3.5107259e-02
 -2.8685012e-01   2.7157426e-02
  9.3298465e-01   6.6205941e-02
  3.3878335e-01   6.8116218e-02
  2.7872929e-01   5.9407990e-02
  2.2275195e+00   5.0267804e-02
 -7.6839703e-01   2.6452607e-02
 -1.3676161e-01   3.4401342e-02
 -2.2522919e+00   6.0344506e-02
 -3.2744721e-01   4.8295144e-02
  4.5957214e-01   6.1641950e-02
  3.0922747e-01   2.7032476e-02
 -1.4840028e-01   3.6862019e-02
 -8.7100908e-02   1.7508009e-02
  1.5098987e+00   8.2313955e-02
  1.5823008e+00   5.9459738e-02
  4.5278975e-01   5.1073253e-02
  5.2042747e-01   8.7855570e-02
 -3.3697468e-01   3.9625347e-02
 -3.3357057e-01   2.5466247e-02
  9.4113129e-01   8.4006160e-02
 -2.6419990e+00   9.7287044e-02
  5.6212807e-01   2.6646493e-02
  4.7566375e-01   2.8971449e-02
 -1.2234633e-01   8.1919745e-02
  8.6289299e-01   5.0097313e-02
  8.6058956e-01   3.1129209e-02
  8.5603994e-01   4.6251338e-02
 -5.4393500e-02   6.1822794e-02
  3.2790652e-01   2.6590511e-02
 -7.0353240e-01   3.4683283e-02
 -5.3339332e-01   7.0557132e-02
  2.1109988e-01   4.2057980e-02
  1.0533401e+00   7.3192105e-02
  1.3910594e+00   5.1805545e-02
 -1.1054317e+00   6.9914326e-02
  1.3790644e+00   7.1513996e-02
 -1.3717846e+00   6.3939057e-02
  2.8105810e-01   1.1550420e-02
  4.0699455e-01   1.7002989e-02
 -2.2330519e-02   1.4058174e-02
 -4.7995165e-01   2.2260271e-02
  1.1257393e+00   7.5353116e-02
 -2.5043172e-01   3.1876046e-02
 -1.1182392e+00   3.1706277e-02
 -4.3455604e-01   1.3921713e-02
  1.3799275e+00   1.9407365e-02
 -1.5418067e+00   3.7445664e-02
 -5.0365502e-01   2.2697950e-02
  2.1276495e-01   1.7953819e-02
  2.8549755e-01   1.6214853e-02
 -3.4079999e-01   3.5960998e-02
 -2.2336478e+00   2.5245827e-02
 -3.3456960e-01   3.2364957e-02
 -2.1842718e+00   5.2586406e-02
  4.4271457e-01   5.7229083e-02
  6.3386697e-01   1.7102184e-02
 -6.9716448e-01   8.9472746e-03
  4.4085741e-01   1.2379839e-02
 -3.1286582e-01   5.3627849e-02
 -9.8664224e-01   9.6934130e-03
  5.3007424e-01   1.3493102e-02
 -2.0607503e-01   4.7372445e-02
  1.1427677e+00   3.5640433e-02
  5.3068984e-01   4.5268066e-02
  4.9966320e-01   4.6377700e-02
  1.1478524e-01   8.3727166e-02
  1.0529468e+00   5.3461246e-02
 -1.3369665e+00   4.1641049e-02
  8.2850084e-02   4.8817150e-02
 -2.6318923e-01   2.7667759e-02
 -2.5415391e-01   7.6113708e-02
  2.0376503e-01   1.8070325e-02
 -7.0720202e-01   5.8277473e-02
 -1.9548391e+00   9.7315475e-02
 -2.2415152e+00   2.8175140e-02
 -1.5728173e-01   4.7778007e-02
 -1.9027071e-01   5.7056475e-02
 -1.6023335e+00   6.2149141e-02
 -9.1676944e-01   5.6560967e-02
  2.3014166e+00   7.9926446e-02
 -6.6783333e-01   5.0249398e-02
  1.5428965e-01   6.7958117e-02
  1.8929636e+00   7.0264183e-02
  9.7849464e-01   4.5073636e-02
  1.3540348e+00   5.9378643e-02
  1.3155779e+00   7.9531752e-02
  1.0298873e+00   9.0045132e-02
  1.7068795e+00   4.8010547e-02
  8.7637866e-01   9.7072825e-02
 -3.8036044e+00   5.6228332e-02
  1.0356225e+00   3.2103345e-02
 -9.8541051e-01   7.7388503e-02
 -7.8981444e-02   2.8905917e-02
  1.1365378e+00   6.1573680e-02
  3.9346254e-01   4.9894904e-03
  1.4173365e+00   3.1597793e-02
  1.5691054e+00   4.1556109e-02
  3.5509090e+00   9.5141344e-02
 -8.8769400e-01   4.3221615e-02
 -8.9344996e-01   6.4079963e-02
  1.8788232e-02   7.1932621e-02
 -8.7953687e-01   3.5379905e-02
 -4.8382035e-01   9.8021194e-02
  1.7149603e-01   8.6560205e-02
  1.1741959e+00   5.0009869e-02
  6.5732461e-01   9.0373084e-02
 -3.4435213e-01   4.9338620e-02
  3.8230214e-01   5.7740219e-02
 -9.0546608e-02   4.5059353e-02
  1.8169697e-02   9.4037779e-02
  4.3932861e-01   6.1650034e-02
  7.3620975e-01   7.8067437e-02
 -1.1838331e+00   2.3016924e-02
 -6.6693980e-01   6.9760457e-02
 -1.4180459e-01   4.8456583e-02
  1.1808281e+00   9.8651953e-02
  8.5233271e-01   9.8930396e-02
  1.2201068e+00   5.1536273e-02
 -1.2528324e+00   6.0181905e-02
 -3.9316252e-01   9.4464645e-02
  2.1609435e+00   8.7368265e-02
 -6.3743627e-01   8.8946849e-02
  1.5681036e+00   7.2663411e-02
 -1.1827942e+00   2.2035742e-02
 -1.1284143e+00   4.3703493e-02
  2.3009281e+00   1.2239768e-02
  1.1536493e-01   6.7710839e-02
  1.3676004e+00   4.1737787e-02
 -1.0039901e+00   3.0789303e-02
  6.4904118e-01   1.0000000e-01
  4.6131086e-01   3.0668557e-02
 -8.1545645e-03   4.8612803e-02
  4.6822304e-01   8.8021316e-02
 -7.2946608e-02   9.5418178e-02
  9.3691409e-01   6.9178574e-02
  3.6480412e-01   8.9548886e-02
 -1.6339873e+00   2.7419500e-02
 -1.5987761e+00   6.1139416e-02
 -1.0051730e+00   5.0609216e-02
 -3.5880989e-01   5.8545362e-02
  2.1516416e+00   5.6021992e-02
  8.6466962e-01   3.4624998e-02
  4.9376756e-01   9.8574691e-02
  1.8513129e+00   4.9980678e-02
  7.4466592e-01   2.7877960e-02
 -8.4414154e-01   2.7386824e-02
 -5.2723163e-01   9.5743611e-02
 -1.4196141e+00   3.9239828e-02
 -2.3496950e+00   5.9682511e-02
 -2.6455102e+00   4.6013933e-02
  5.7689989e-01   4.4942126e-02
  1.4878439e+00   4.2992514e-02
  1.6600273e+00   4.9012598e-02
  8.3788937e-01   1.9410590e-02
  6.6004145e-01   8.0866829e-02
 -7.5772740e-02   6.9033697e-02
  1.3361782e+00   2.2652639e-02
  8.6280501e-01   4.5482196e-02
 -1.2692180e+00   6.0324512e-02
 -1.0944388e+00   9.4981112e-02
  5.4479355e-01   8.1110023e-02
 -1.1438655e+00   5.3384095e-02
  2.5683374e+00   6.2215362e-02
  1.3285902e+00   4.9406197e-02
  7.5520033e-01   3.9454665e-02
  3.3414266e-01   6.4034477e-02
  3.0054277e-01   5.6184199e-02
 -1.1238579e+00   5.6356579e-02
 -4.4283739e-01   8.9934252e-02
  6.1083061e-01   4.9651895e-02
  6.2949479e-01   6.8941832e-02
  1.2212735e+00   6.7385159e-02
 -6.0609961e-01   7.8949332e-02
  7.8500366e-01   6.0000438e-02
 -1.8900528e+00   4.8163902e-02
 -7.0500618e-01   4.0601503e-02
  8.4279454e-01   6.4703397e-02
 -6.7914498e-01   4.9766973e-02
 -1.3733997e+00   5.4409996e-02
 -1.4063643e+00   5.0917223e-02
  1.3028374e+00   3.3662140e-02
 -3.2195654e+00   8.8375755e-02
 -7.4916136e-01   5.8895063e-02
 -1.2539660e+00   9.8770663e-02
 -6.1741883e-01   7.1391590e-02
  1.7436457e+00   3.6309250e-02
  2.9534750e+00   5.3813439e-02
 -6.5013140e-01   5.6625970e-02
  2.0030516e-01   6.5296382e-02
  1.9655663e-01   3.7648134e-02
 -6.0193253e-01   2.1922484e-02
  1.0105798e+00   2.5420122e-02
 -2.7113333e+00   1.0446560e-02
  4.0925052e-02   6.9872022e-02
  1.8248500e+00   5.2214637e-02
  6.4627486e-01   5.6993425e-02
 -5.9733462e-01   7.8479484e-02
 -8.3458096e-01   7.1349569e-02
 -1.8684641e-01   8.2592323e-02
  2.8440189e-01   5.9000026e-02
 -1.2743505e+00   4.0616494e-02
  1.6728851e-01   8.5585736e-02
  5.0627631e-01   2.0801075e-02
 -5.8912450e-01   8.4286302e-02
 -2.0203471e+00   4.0020380e-02
 -4.2864636e-01   6.8834871e-02
  7.4872386e-01   3.8025729e-02
 -1.7904736e+00   4.5414068e-02
 -2.0920594e+00   6.1660923e-02
 -4.5842424e-01   2.3828307e-02
  5.4312581e-01   4.9556214e-02
  8.6862916e-01   6.5912783e-02
 -2.8794833e-02   2.4008222e-02
 -2.2804250e-01   6.2586479e-02
 -1.8176326e+00   8.5102163e-02
  2.0554943e+00   4.1812163e-02
  7.2710800e-01   5.1629409e-02
 -1.4328930e+00   7.6704822e-02
 -1.1700876e+00   6.2149804e-02
 -4.9788961e-01   3.2035232e-02
  1.5204967e+00   4.5252237e-02
 -4.1605282e-01   5.1878851e-02
  5.0005001e-01   8.3485253e-02
 -2.7506369e-01   9.9038333e-02
  5.1759022e-01   8.8931315e-02
 -2.1812329e+00   3.5581548e-02
  1.5589671e+00   9.3562603e-02
  6.8552506e-01   5.9231877e-02
 -3.0281270e-01   8.9977711e-02
  4.8507416e-01   6.6437967e-02
  1.2028939e+00   9.9813707e-02
 -9.5862216e-01   1.6416645e-02
 -3.4635082e-01   6.1690070e-02
 -9.2552358e-01   4.3437999e-02
  1.9965291e+00   6.9041461e-02
  4.1550413e-01   5.0387926e-02
  8.7917745e-01   1.9938545e-02
 -3.5634902e-01   8.2147703e-02
  3.5574627e-01   3.9408818e-02
  9.2577809e-01   3.3558588e-02
 -6.8211871e-01   2.7847402e-02
  2.2615378e+00   7.5540461e-02
 -1.4842246e+00   8.3642431e-02
  3.0402114e+00   5.3721268e-02
 -4.6220285e-01   9.8557398e-02
  7.3176908e-01   7.8258745e-02
 -6.1436838e-01   7.5003244e-02
 -1.9215697e-02   5.9540723e-02
  8.0040240e-01   9.4975978e-02
 -4.7219008e-01   6.9903515e-02
  4.6060896e-01   7.7443063e-02
  2.5640935e-01   7.9189427e-02
 -1.0513940e-01   3.7822846e-02
 -9.0076812e-02   7.0706792e-02
 -5.3138524e-01   7.8866698e-02
 -2.2706776e+00   5.3266495e-02
 -7.1400505e-01   4.8637673e-02
  1.1035571e+00   8.2853891e-02
 -2.0852213e+00   4.2664174e-02
  4.2973518e-01   7.0041187e-02
  1.0919467e+00   6.6875078e-02
  1.9755932e+00   9.5551170e-02
 -7.5774604e-01   5.9567336e-02
  5.4150049e-02   9.2655279e-02
 -3.0262607e-01   9.8307550e-02
 -1.3015469e+00   4.8327200e-02
 -3.9803559e-01   5.9015203e-02
  2.3897209e+00   6.1915223e-02
  1.0383288e+00   2.6378136e-02
 -2.3096558e-01   2.4810473e-02
 -4.0131789e-01   6.5160461e-02
  1.0696914e-01   4.5011163e-02
  1.0126009e+00   9.4261639e-02
  1.1602553e+00   5.7995513e-02
  8.4289098e-01   8.0882259e-02
 -3.0812168e+00   5.3241495e-02
 -1.1121253e+00   6.8980195e-02
  2.3131239e+00   6.1017871e-02
 -6.3659614e-01   4.8827987e-02
  2.4838979e+00   3.3606894e-02
 -1.5340810e+00   1.6711319e-02
 -1.4635412e+00   3.9101664e-02
  1.4385207e+00   1.8041499e-02
  8.7368679e-01   1.5900582e-02
 -2.1949391e+00   1.6150614e-02
  1.5586760e+00   1.8018646e-02
 -4.0792957e-01   1.3167564e-02
 -8.0108702e-01   1.2840571e-02
 -8.2256383e-01   1.9023208e-02
 -1.6241231e+00   3.1653881e-02
 -8.3344501e-01   1.1800040e-02
  6.1608791e-01   1.5627785e-02
 -4.3023151e-01   1.2729212e-02
  2.0484222e-02   4.7373001e-02
 -1.3569826e+00   2.6910018e-02
 -1.1472888e-01   1.8626353e-02
  5.7454389e-01   1.7043846e-02
 -1.2241068e+00   1.1209192e-02
 -1.5361183e+00   2.8181043e-02
 -1.1640590e+00   4.3396261e-03
  8.9342052e-01   1.9106984e-02
  6.1749852e-01   3.8043857e-02
  3.9969862e-01   4.2332549e-02
  1.2495202e+00   3.2448053e-02
  2.6071296e+00   4.0167440e-02
 -2.3397617e-01   1.0919985e-02
 -3.3475408e-01   2.9716635e-02
 -2.0308296e-01   6.2583871e-03
  3.3503559e-01   1.7617300e-02
 -3.3460450e-01   3.9390787e-02
 -1.6357210e+00   2.7127253e-02
 -1.8177217e-01   3.8370147e-02
 -2.4016617e-01   2.9496837e-03
  5.4047364e-01   1.6386513e-02