43
energy=-285.335302 Lattice="11.007200000 0.000000000 0.000000000 -0.000965000 9.532200000 0.000000000 0.000000000 0.000000000 19.986500000" virial="0.03397 0.15783 -0.09641 0.15783 2.47927 1.09913 -0.09641 1.09913 -8.17366" Config_type=scf/run/0271 Properties=species:S:1:pos:R:3:forces:R:3 pbc="T T T"
S	      1.03338      1.58485     11.33534        -0.629562      0.492532      0.800417
S	      3.63988      3.19941     11.38384        -0.015420     -0.437335     -0.264548
S	      0.97048      1.64270      8.14943        -0.408356     -0.668017      0.953879
S	      3.66126      3.13682      8.23382         0.646226      0.051945      0.302376
S	      6.42691      1.51690     11.51003         1.485542     -0.032295     -0.548398
S	      9.11321      3.10934     11.46968         1.008219     -0.113584     -0.540934
S	      6.40243      1.47787      8.32251         0.445732     -0.018493     -0.105333
S	      9.17581      3.11417      8.27055        -0.083816     -0.422688      0.193513
S	      0.96371      4.79701     11.49485         0.593509     -0.523137     -1.078630
S	      3.64262      6.36532     11.39507         0.788026     -0.065471     -0.177495
S	      0.91850      4.78483      8.21757         0.506036     -0.194666     -0.372233
S	      3.68709      6.33964      8.17324         0.378078      0.407416      0.548395
S	      6.40019      4.79037     11.45354         0.644014     -0.410871     -1.269017
S	      9.25357      6.31671     11.35832        -0.116205      0.086769      0.091375
S	      6.46491      4.72862      8.19098         0.094699      0.066551      0.752741
S	      9.35343      6.38186      8.23889        -0.885498     -0.977023      0.299098
S	      1.00620      7.87926     11.33217        -0.041532      0.202430      0.832998
S	      3.60824      9.48181     11.42037         0.582734      0.206029      0.298241
S	      0.94805      7.93928      8.27251         0.579536      0.079003     -0.862777
S	      3.67180      0.05029      8.23378        -0.108783     -0.697049      0.260164
S	      6.36421      7.91295     11.53091         0.471169      0.068780     -0.521262
S	      9.27903      9.43125     11.41442        -0.039704      0.122969      0.710480
S	      6.44812      7.85581      8.19392        -0.130499      0.831014      0.564858
S	      9.21961      9.42688      8.35611        -0.038013      0.581842     -1.002203
Mo	      1.81983      3.21473      9.74256         0.442470     -0.222706      0.951039
Mo	      4.58185      1.50342      9.82908        -0.401542      1.114324     -0.158420
Mo	      7.28646      3.11390      9.81654         0.373428      0.490432     -0.208283
Mo	     10.15266      1.52633      9.80414        -0.400735      0.456790     -0.611835
Mo	      1.89420      6.34319      9.76591        -0.715340     -0.422335      0.528310
Mo	      4.61692      4.78294      9.74873        -0.453230     -0.190681      0.100459
Mo	      7.38461      6.37046      9.73849        -0.107047     -1.075383      0.585355
Mo	     10.18763      4.63441      9.77050        -1.366502      1.889545      0.549012
Mo	      1.82191      9.51610      9.83403         0.991291      0.264944     -1.378250
Mo	      4.58554      7.97853      9.81551        -0.049309     -1.173559     -0.370864
Mo	      7.37171      9.40382      9.83558        -0.515250      0.696409     -0.039763
Mo	     10.21563      7.91270      9.81763        -0.986556     -0.549172      0.619398
Ni	      4.68317      1.65945     12.40695        -1.230036      0.010907      0.278751
Ni	      7.34318      3.26455     12.48821        -0.508174     -0.341114      0.011928
Ni	     10.17591      1.58402     12.36068        -0.193404     -0.116182     -0.070927
Ni	      4.63920      4.67977     12.41582        -0.453121      0.313674     -0.088673
Ni	      7.35095      6.28843     12.40698         0.448777      0.267481     -0.073404
Ni	     10.09847      4.68990     12.37673        -0.437223     -0.013024      0.015734
Ni	      7.44577      9.48139     12.52709        -0.164627     -0.036999     -0.505272
43
energy=-284.133761 Lattice="11.007200000 0.000000000 0.000000000 -0.000965000 9.532200000 0.000000000 0.000000000 0.000000000 19.986500000" virial="1.26551 -1.84969 -0.90080 -1.84969 6.34974 -4.53989 -0.90080 -4.53989 -4.51390" Config_type=scf/run/0100 Properties=species:S:1:pos:R:3:forces:R:3 pbc="T T T"
S	      0.94882      1.48492     11.48237        -0.288432      0.745323     -0.168980
S	      3.64365      3.13533     11.46464        -1.102486      0.829297     -1.553066
S	      0.90632      1.53207      8.36948         0.325381     -0.436327     -1.399417
S	      3.66757      3.09808      8.14759        -0.273346     -0.076473      0.600286
S	      6.62951      1.60036     11.28860        -0.592453     -0.567870     -0.231886
S	      9.25550      3.18877     11.43426         0.410663     -0.102136     -0.748620
S	      6.43994      1.57659      8.19261         0.319485     -0.623688      0.359304
S	      9.35761      3.26770      8.30647        -0.851047     -0.836607     -0.028652
S	      0.97266      4.72635     11.45348        -0.250449     -0.210922      0.202085
S	      3.67747      6.37403     11.40616         1.238025     -0.187253      0.032092
S	      0.85213      4.70770      8.28471         1.092746      0.679961      0.462498
S	      3.73250      6.28900      8.26068        -0.677394      0.621010     -0.310764
S	      6.52212      4.74659     11.37343        -0.359137      0.014318     -0.072705
S	      9.17422      6.59430     11.58817        -0.058398     -1.943861     -0.463362
S	      6.41898      4.62424      8.19101         0.191591      1.171361     -0.516786
S	      9.11054      6.32898      8.23448         0.369762     -0.431009      0.210216
S	      0.97709      7.87784     11.37870        -0.728945      0.544834      0.421938
S	      3.72383      9.44543     11.33897         0.818607      0.620329      0.699412
S	      0.99152      7.83399      8.34231         0.112650      0.533561     -0.547611
S	      3.75073      0.00078      8.28701        -0.854428     -0.615259     -0.770989
S	      6.41189      7.89885     11.44611         0.276611      0.200315      0.208831
S	      9.18068      9.41486     11.53217         0.490229      0.110068     -1.069972
S	      6.41280      7.85546      8.15181         0.616503      0.511498     -0.351565
S	      9.24607      9.45561      8.20913        -0.137866     -0.033423     -0.017550
Mo	      1.84980      3.09515      9.78930        -0.236077      0.783361      1.552153
Mo	      4.59070      1.54890      9.76608         0.786211      0.739976     -0.355393
Mo	      7.38564      3.17427      9.70748         0.963312     -0.077644      0.639926
Mo	     10.08367      1.47965      9.80180         0.141296      1.000187      1.017463
Mo	      1.88480      6.31581      9.93432        -0.139851     -1.024981     -2.203789
Mo	      4.60417      4.68559      9.66743        -0.369443     -0.146935      1.858719
Mo	      7.25050      6.35867      9.75485         1.391581     -0.734552      0.458703
Mo	     10.12143      4.85816      9.89065        -0.397214     -0.642595     -0.139582
Mo	      1.86126      9.52649      9.88899         0.090722     -1.456429     -0.878364
Mo	      4.72720      7.91851      9.74888        -2.143475     -0.394378      1.086524
Mo	      7.40693      9.38681      9.72572        -0.700580      1.128451      0.259784
Mo	     10.08458      7.84271      9.74659         0.588465      1.609804      1.897296
Ni	      4.87196      1.83922     12.21216         0.115922     -1.501915      1.730832
Ni	      7.50036      3.19699     12.42939        -0.663831     -0.051378      0.127932
Ni	     10.01751      1.58569     12.46535         0.028872     -0.209468     -0.519116
Ni	      4.66230      4.70411     12.24458         0.134729      0.317537      0.520210
Ni	      7.39474      6.18461     12.67407        -0.128463      0.189097     -1.134628
Ni	      9.91124      4.80039     12.49304         0.273975      0.454525     -0.492505
Ni	      7.29907      0.09640     12.50571         0.175978     -0.499709     -0.370903
43
energy=-284.600378 Lattice="11.007200000 0.000000000 0.000000000 -0.000965000 9.532200000 0.000000000 0.000000000 0.000000000 19.986500000" virial="-0.29025 -1.01322 0.91199 -1.01322 7.12885 0.68813 0.91199 0.68813 -2.54754" Config_type=scf/run/0435 Properties=species:S:1:pos:R:3:forces:R:3 pbc="T T T"
S	      0.91669      1.58832     11.46402        -0.485703     -0.616155      0.220228
S	      3.67850      3.15329     11.47925         0.447973      0.082804     -0.147864
S	      0.84928      1.50438      8.30315         0.820862      0.228247     -0.208059
S	      3.62970      3.08829      8.29956         0.116061      0.723667      0.224236
S	      6.47644      1.54189     11.23013        -0.118331      0.152761      1.125444
S	      9.09556      3.14128     11.43147         0.431568     -0.022890     -1.155496
S	      6.42300      1.62570      8.19833        -0.286554     -0.722170     -0.199145
S	      9.25416      3.35389      8.23199        -0.356439     -1.478435      0.085153
S	      0.91118      4.65339     11.51025        -0.131549     -0.090010      0.252297
S	      3.67480      6.36010     11.64698         0.357878      0.287681     -1.222222
S	      1.04829      4.63042      8.24071        -0.356625      0.824131      0.650002
S	      3.70314      6.31259      8.35913        -0.520118      1.124322     -0.223068
S	      6.45782      4.74948     11.33150         0.553802     -0.198676     -0.309064
S	      9.27819      6.46202     11.38004        -0.039665     -0.721573     -0.089913
S	      6.43145      4.79662      8.16885        -0.364522     -0.263630      0.260449
S	      9.31982      6.33161      8.17950         0.000167      0.138228      0.055924
S	      1.00227      7.87902     11.50502        -0.484053      0.159428     -0.799018
S	      3.66618      9.47878     11.50084         0.647483     -0.152272     -0.224213
S	      1.06349      7.84635      8.26477         0.078066      0.028681      0.946811
S	      3.58290      9.47777      8.29311         0.947818     -0.275332      0.428990
S	      6.52942      7.89376     11.41255         0.303659      0.794658      0.274856
S	      9.24058      9.34235     11.20617        -0.436329      1.994779      2.112258
S	      6.41836      7.97528      8.29555        -0.064460     -0.962574     -1.735023
S	      9.30299      9.45152      8.23782        -0.539774      0.348606     -1.110312
Mo	      1.77015      3.09438      9.87306         1.140107      0.418607     -0.064559
Mo	      4.56015      1.51725      9.79286         0.231706      0.274087      0.189186
Mo	      7.33139      3.17067      9.71909         0.408294      1.013876     -0.153932
Mo	     10.03552      1.57094      9.74837         0.641093      0.121626      0.043409
Mo	      1.84179      6.20475      9.97661         1.056667      1.371893     -1.117477
Mo	      4.57907      4.83042      9.80437         0.473902     -2.184443      0.956799
Mo	      7.43815      6.34239      9.65630        -0.379510      0.180289      1.424858
Mo	     10.21707      4.80105      9.79369        -0.921180     -0.130806      0.180188
Mo	      1.83659      9.51908      9.91169        -0.227470     -1.012959     -0.289616
Mo	      4.72349      7.90385      9.92602        -3.021986      0.166679     -0.493548
Mo	      7.39497      9.48439      9.66747        -0.077891      0.501057      1.183903
Mo	     10.21116      7.90641      9.77767         0.779346     -1.206705     -0.672494
Ni	      4.74043      1.50941     12.43154         0.046146      0.434621     -0.647830
Ni	      7.32546      3.14201     12.44643        -0.636251     -0.112519     -0.234945
Ni	      9.97957      1.52496     12.25233        -0.233522     -0.570032      0.625573
Ni	      4.80895      4.83371     12.48936        -0.546650     -0.707742     -0.296366
Ni	      7.42396      6.27682     12.30225         0.172427     -0.212423      0.394395
Ni	      9.79866      4.73164     12.37220         0.640161      0.571372      0.280081
Ni	      7.46168      0.10949     12.35872        -0.066605     -0.300752     -0.520875
43
energy=-283.888364 Lattice="11.007200000 0.000000000 0.000000000 -0.000965000 9.532200000 0.000000000 0.000000000 0.000000000 19.986500000" virial="2.80994 0.22053 4.97543 0.22053 14.35454 -4.37543 4.97543 -4.37543 -2.05949" Config_type=scf/run/0731 Properties=species:S:1:pos:R:3:forces:R:3 pbc="T T T"
S	      0.95785      1.49181     11.45727         0.299778      0.478845     -0.703874
S	      3.62055      3.11171     11.34131        -0.195123      0.103989      0.403342
S	      0.89870      1.52877      8.23571         0.384650      0.826487     -0.436548
S	      3.64645      3.14046      8.26512         0.840882     -0.205690     -0.890711
S	      6.49481      1.76127     11.66958        -0.722044     -1.024897     -1.400173
S	      9.34232      3.19820     11.41206         0.000542     -0.687440     -0.594677
S	      6.49063      1.51640      8.33005         0.368366      0.723299      0.868091
S	      9.26818      3.16748      8.38622        -0.582520     -0.050631     -0.481343
S	      0.98821      4.76169     11.37226         0.656031      0.507736     -0.197910
S	      3.61248      6.33380     11.48924        -0.405191      1.864336     -1.822701
S	      1.00231      4.70911      8.20097        -0.074950      0.688109     -0.079765
S	      3.80568      6.18525      8.10065        -0.401018      1.452227      0.626794
S	      6.36617      4.73185     11.67881        -0.154511     -0.447487     -1.613026
S	      9.31492      6.43777     11.45168        -0.485556     -0.615408     -0.347942
S	      6.42859      4.68700      8.37771         0.490163      0.134434     -1.047187
S	      9.15809      6.25918      8.27328         0.253410      0.045515     -0.654466
S	      1.00239      7.94947     11.16874        -0.061182     -0.297697      1.024036
S	      3.64997      9.50018     11.33049         0.176632     -0.918083     -0.073371
S	      0.90016      7.99561      8.15115         0.553908     -0.633029     -0.281157
S	      3.80945      9.39763      8.15096        -0.600421      0.653542      0.750105
S	      6.39132      7.94964     11.35939         0.878049     -0.678359      1.136453
S	      9.28408      9.24808     11.56283        -0.513215      0.941152     -0.670200
S	      6.51169      7.97123      8.27843         0.266157     -0.468644      0.409580
S	      9.25175      0.02887      8.18809        -0.265007     -0.435611      1.176417
Mo	      1.88258      3.15597      9.75757        -1.769051     -0.731071      1.033091
Mo	      4.56744      1.54614      9.77400         0.993814     -0.387951     -0.406525
Mo	      7.38908      3.24028      9.93835        -0.130871     -1.537312     -1.095550
Mo	     10.16621      1.53357      9.84031        -0.623087     -0.675930      0.055548
Mo	      1.94362      6.39151      9.68160        -0.494010     -1.518643      0.482292
Mo	      4.56559      4.75169      9.75851         0.080204     -0.619445      1.397580
Mo	      7.36162      6.28775      9.79990        -0.198080      1.066193      1.016735
Mo	     10.21718      4.79269      9.80138        -0.586816     -0.349467      0.202997
Mo	      1.86129      0.00697      9.70595         0.636907     -0.369677      0.369673
Mo	      4.63323      7.84025      9.80363        -0.578470      0.297957     -0.683665
Mo	      7.49951      9.48759      9.88792        -1.218108      0.685651     -0.723609
Mo	     10.12465      7.84681      9.74757         0.068841      1.728768     -0.150742
Ni	      4.53595      1.54532     12.33516         0.260320      0.106610      0.183109
Ni	      7.62192      3.24963     12.45876        -0.081350      0.452630      1.479502
Ni	      9.89960      1.48949     12.39451         0.479830      0.049272      0.119755
Ni	      4.40070      4.75057     12.29736         0.613734     -1.017960      1.207350
Ni	      7.49484      6.13970     12.40122         0.419522      1.474635      0.411353
Ni	      9.90949      4.77293     12.46671         0.662841      0.380305      0.089819
Ni	      7.10038      0.09319     12.51168         0.756000     -0.991260     -0.088478
43
energy=-282.695320 Lattice="11.007200000 0.000000000 0.000000000 -0.000965000 9.532200000 0.000000000 0.000000000 0.000000000 19.986500000" virial="9.48944 -1.31931 -4.35459 -1.31931 8.40930 -1.06038 -4.35459 -1.06038 13.32391" Config_type=scf/run/0052 Properties=species:S:1:pos:R:3:forces:R:3 pbc="T T T"
S	      0.79226      1.75027     11.30363         2.394682     -0.308844      1.281155
S	      3.52429      3.12671     11.57214         1.091340     -0.210993      0.385820
S	      0.97235      1.63002      8.25346         0.214892     -0.261897      0.854830
S	      3.75886      3.09828      8.21758         0.265333     -0.314555      0.328441
S	      6.53382      1.46874     11.31997        -0.570143      0.969409      2.313915
S	      9.06356      3.04342     11.20269         0.507404      0.986170      1.146737
S	      6.27809      1.48236      8.24120         0.756689     -0.121741      0.572072
S	      9.11921      3.09306      8.20533        -0.100200     -0.453281      0.475111
S	      0.96129      4.82920     11.35719        -0.264934     -0.335907      0.166124
S	      3.75225      6.27260     11.42722         0.566774      0.056155      0.787506
S	      0.92527      4.81049      8.23655         0.858900      0.357882      0.837141
S	      3.72133      6.20195      8.32125        -0.075390      1.357738     -0.128684
S	      6.59937      4.83135     11.41066        -0.235595      0.260268     -0.279722
S	      9.25837      6.34820     11.30060         0.593237     -0.694296      0.472650
S	      6.34578      4.82523      8.22435         1.204340     -0.950353     -1.042513
S	      9.30713      6.32105      8.05820        -0.825628     -0.192533      1.078304
S	      0.98591      7.93899     11.38179        -1.257813      0.488550      1.522941
S	      3.56871      9.45098     11.44661         1.305308      0.409383      1.896375
S	      0.97994      7.97810      8.33817         1.003349      0.456042     -0.608618
S	      3.72654      0.05281      8.40430        -0.857225     -0.286204      0.221460
S	      6.44383      7.93771     11.35907         0.278658     -0.602557      1.394903
S	      9.29469      9.33222     11.37945        -0.361358      1.017239      1.045911
S	      6.23570      7.88627      8.22104         1.300618      0.397977      0.503277
S	      9.20345      9.44354      8.22073        -0.579150      0.313149     -0.189982
Mo	      2.01635      3.25755      9.78719        -3.247324     -0.458764     -0.161082
Mo	      4.61040      1.59851      9.98442        -1.255348     -0.969327     -3.251003
Mo	      7.17294      3.12093      9.73128         1.912737      0.460824     -1.071811
Mo	     10.08311      1.43818      9.82653        -0.678285      1.436077     -3.043336
Mo	      1.96601      6.49930      9.93186        -1.692178     -3.308686     -2.326114
Mo	      4.67423      4.61755      9.76522        -1.503989      1.780453      1.298116
Mo	      7.41011      6.33038      9.67693        -0.697040      0.811715     -0.034957
Mo	     10.03741      4.70736      9.72901         1.022142      0.220137     -0.438557
Mo	      1.81923      0.03917      9.97563        -0.237392      0.663219     -3.149387
Mo	      4.56402      7.92606      9.92708         0.130214     -0.931853     -1.449072
Mo	      7.35726      9.42161      9.83084         0.093782      0.393933     -2.824639
Mo	     10.11236      7.90875      9.71734         0.991775     -1.238733      0.635091
Ni	      4.65563      1.51864     12.38172         0.189755      0.211049      0.639277
Ni	      7.32745      3.22645     12.38701         0.196652     -0.944362      0.091995
Ni	     10.06596      1.68828     12.38125        -0.827577     -0.385343      0.135992
Ni	      4.78746      4.58265     12.25578        -0.344689      0.206807      0.964121
Ni	      7.57893      6.50723     12.44707        -0.637571     -0.364673      0.195271
Ni	     10.12292      4.44510     12.37704        -0.406119      0.297052     -0.959076
Ni	      7.52120      0.04871     12.45632        -0.223635     -0.216329     -0.285982
43
energy=-282.470527 Lattice="11.007200000 0.000000000 0.000000000 -0.000965000 9.532200000 0.000000000 0.000000000 0.000000000 19.986500000" virial="-4.21276 -1.23089 8.54624 -1.23089 11.05315 10.31133 8.54624 10.31133 -9.01796" Config_type=scf/run/0745 Properties=species:S:1:pos:R:3:forces:R:3 pbc="T T T"
S	      0.93418      1.34274     11.36644        -0.512515      0.093121      0.623555
S	      3.48656      2.99783     11.45855         0.271969      1.885172     -0.303613
S	      0.87891      1.62916      8.34581        -0.189585     -1.273401     -1.403903
S	      3.63490      3.09863      8.33378        -0.583224      0.466517      0.315698
S	      6.47953      1.47185     11.60054        -0.258577      1.515289      0.078478
S	      9.29780      3.11013     11.36461         0.222179      0.519494      0.519653
S	      6.49866      1.62567      8.24288        -0.317799     -0.612448      0.484640
S	      9.20530      3.12135      8.24515         0.166241     -0.060856      0.569813
S	      1.02811      4.99744     11.45810        -0.540319     -1.764106     -0.486896
S	      3.62804      6.44730     11.46410         0.434157     -0.065362     -0.068534
S	      1.09448      4.79468      8.26698        -0.235127     -0.454636     -0.078080
S	      3.76192      6.52750      8.27551         0.175848     -1.365076     -0.405564
S	      6.40187      4.77395     11.23198         0.556483     -0.101443      1.664983
S	      9.46646      6.31575     11.25687        -1.845381      2.282432      0.156757
S	      6.46573      4.85758      8.20636        -0.332020     -0.842413      1.259747
S	      9.30779      6.36270      8.03628        -0.150184     -0.010128      1.125009
S	      0.90999      7.95236     11.33010         0.575421      0.565025     -0.900178
S	      3.74196      9.36143     11.36203        -0.601451      0.747729      0.061591
S	      1.04586      7.87334      7.95238        -0.206289      0.627926      1.454631
S	      3.82235      9.49621      8.19914         0.039175     -0.615146     -0.178629
S	      6.49950      7.79400     11.60001        -0.344227     -0.530406     -0.894783
S	      9.10668      9.37797     11.41145         0.749595     -1.016131      0.204651
S	      6.60738      7.92033      8.34386        -0.493261      0.278413     -0.511277
S	      9.14320      9.52687      8.29565        -0.541705      0.318458     -1.188517
Mo	      1.65139      3.06673      9.92895         2.753359      2.069609     -0.401516
Mo	      4.62764      1.48643      9.74577         0.346346      0.994417      1.239887
Mo	      7.38596      3.11725      9.82271        -0.532895      0.840136     -0.536347
Mo	     10.05712      1.42546      9.84946         0.936787      1.869386     -0.596816
Mo	      1.91334      6.46490      9.76553        -0.371971     -0.303692     -0.016482
Mo	      4.44812      4.81373      9.83308         0.897772     -0.741439     -0.871753
Mo	      7.55283      6.36395      9.78439        -0.928663     -0.239169     -0.298126
Mo	     10.22171      4.82689      9.67694        -0.158415     -1.163219      0.142559
Mo	      1.90754      9.43115      9.65365        -0.355502      0.346399      1.260135
Mo	      4.76240      7.90599      9.86926        -0.739065     -0.119322     -0.298033
Mo	      7.32036      0.01536      9.89874         0.157065     -1.113349     -1.124040
Mo	     10.20541      7.99399      9.62607        -0.281492     -2.125619      1.167862
Ni	      4.43284      1.53471     12.35915         0.928086     -0.823122      0.679397
Ni	      7.62873      3.46636     12.47471        -0.638963     -0.183638     -0.420786
Ni	      9.84664      1.35264     12.46690         0.561598      1.029523     -0.140614
Ni	      4.20943      4.73429     12.43896         0.449379     -0.419257     -0.880762
Ni	      7.60269      6.27400     12.47917         0.163765     -0.681643     -1.075012
Ni	     10.02751      4.82042     12.39384         0.217358     -1.024565      0.076252
Ni	      7.33528      9.24106     12.64032         0.556046      1.200541     -0.005041
43
energy=-284.686333 Lattice="11.007200000 0.000000000 0.000000000 -0.000965000 9.532200000 0.000000000 0.000000000 0.000000000 19.986500000" virial="-1.00083 0.03261 -0.38364 0.03261 8.31578 3.27360 -0.38364 3.27360 -2.42643" Config_type=scf/run/0439 Properties=species:S:1:pos:R:3:forces:R:3 pbc="T T T"
S	      0.93294      1.49272     11.48128        -0.189223      0.548395      0.262173
S	      3.63379      3.20127     11.50764         0.816745     -0.525811      0.020017
S	      0.83505      1.51679      8.32514         0.998251      0.203143     -0.559821
S	      3.61336      3.13990      8.37188         0.179827     -0.169335     -0.759833
S	      6.44799      1.54073     11.35916         0.428052      0.753097     -0.681170
S	      9.16580      3.14319     11.42881        -0.196450      0.202718     -1.266613
S	      6.39298      1.63750      8.22308        -0.032448     -0.972858     -0.077403
S	      9.32150      3.34086      8.21065        -0.802252     -1.570278     -0.146155
S	      0.93049      4.67849     11.51911        -0.130904     -0.316066     -0.087819
S	      3.62152      6.39610     11.58912         1.287962     -0.236641     -0.445939
S	      1.04635      4.62000      8.20621        -0.049671      0.791615      1.132963
S	      3.66272      6.36516      8.37271         0.150498      0.065824     -0.513806
S	      6.47497      4.72428     11.31109         0.200190      0.019550     -0.520449
S	      9.38448      6.39002     11.34342        -1.959737      0.380362      0.369701
S	      6.42300      4.87336      8.15563        -0.246952     -1.235389      0.038707
S	      9.30491      6.39237      8.21185         0.092512     -0.639430     -0.461575
S	      0.99022      7.89055     11.43781        -0.123612      0.127560     -0.143056
S	      3.70042      9.47859     11.47146        -0.070691     -0.232235      0.022646
S	      1.05848      7.82884      8.26142         0.177441      0.222964      0.896994
S	      3.55461      9.51318      8.28913         1.183244     -0.108502      0.320502
S	      6.54396      7.88597     11.37128        -0.118132      0.376188      0.296977
S	      9.24734      9.39315     11.27515        -0.509013      0.733015      1.053069
S	      6.40417      7.92942      8.22877        -0.089797     -0.148345     -0.430245
S	      9.32552      9.37327      8.21411        -0.942809      1.185216     -0.379803
Mo	      1.77522      3.07160      9.89191         0.458584      0.865577      0.177221
Mo	      4.54506      1.54033      9.83233         0.499611      0.389240     -0.033241
Mo	      7.39633      3.17760      9.66445        -0.455741      0.742857      0.770163
Mo	     10.04451      1.56803      9.76240         0.568817     -0.271890     -0.228235
Mo	      1.90105      6.21650      9.96945        -0.717616      1.059717     -1.448652
Mo	      4.57045      4.76912      9.78217         0.442872      0.059391      1.379536
Mo	      7.42909      6.33484      9.65978        -0.111954      0.498783      1.671851
Mo	     10.22485      4.78725      9.77268        -0.265961     -0.117084      0.437085
Mo	      1.83174      0.02179      9.90584        -0.043986     -2.008193     -0.657886
Mo	      4.64591      7.92067      9.90168        -1.202213      0.048509     -0.513548
Mo	      7.38181      9.46499      9.68916        -0.063225      0.613101      0.416134
Mo	     10.22156      7.88811      9.78268         0.466582     -0.115752     -0.007611
Ni	      4.72141      1.46061     12.44003        -0.300188      0.785609     -0.155320
Ni	      7.33773      3.17461     12.40014        -0.236115     -0.134860     -0.019980
Ni	     10.05183      1.56135     12.28272        -0.427612     -0.683033      0.789372
Ni	      4.79980      4.85895     12.46090        -0.488414     -0.410410     -0.503594
Ni	      7.36724      6.23650     12.33682         0.711399      0.045913     -0.192011
Ni	      9.77408      4.75608     12.41375         0.799087     -0.073074      0.403080
Ni	      7.40820      0.10701     12.37452         0.313046     -0.749156     -0.224428
43
energy=-283.687864 Lattice="11.007200000 0.000000000 0.000000000 -0.000965000 9.532200000 0.000000000 0.000000000 0.000000000 19.986500000" virial="-1.37135 -0.52408 -3.75768 -0.52408 1.84548 -2.39137 -3.75768 -2.39137 -9.70715" Config_type=scf/run/0782 Properties=species:S:1:pos:R:3:forces:R:3 pbc="T T T"
S	      1.05756      1.68337     11.38666        -0.666873     -0.552069      0.145796
S	      3.77582      3.15868     11.52908        -0.397674      0.716772     -0.492026
S	      1.06342      1.43630      8.16194        -0.191118      1.362850      1.308100
S	      3.73237      3.01865      8.28421         0.203271      0.490546      0.741619
S	      6.49007      1.53319     11.32327         1.163200     -1.525700      0.470764
S	      9.08520      3.18188     11.24629         1.346444     -0.365989      1.029812
S	      6.42651      1.54944      8.24585        -0.188265     -0.547653     -0.698674
S	      9.15592      3.15737      8.23953         0.144826      0.315362     -0.774905
S	      0.88374      4.70215     11.35536        -0.372021      0.669041      0.778028
S	      3.64971      6.32942     11.51778         0.230428     -0.930593      0.131485
S	      1.00580      4.70872      8.13799        -0.245366      0.372953      1.407695
S	      3.68551      6.34295      8.28247        -0.027309     -0.422133      0.372896
S	      6.51940      4.73885     11.38913         0.851759     -0.238728     -0.543408