688
Time=1000.00000000 pbc="T T T" Lattice="44.02880096 0.00000000 0.00000000 -0.00385356 38.12879924 0.00000000 0.00000000 0.00000000 19.98649979" energy=-4563.50761509 virial="37.44482700 -2.61589493 10.65055078 -2.61589493 53.36640331 -31.26830642 10.65055078 -31.26830642 -12.28339893" stress="0.00169934 -0.00009449 0.00032009 -0.00009449 0.00209115 -0.00092350 0.00032009 -0.00092350 0.00014608" Properties=species:S:1:pos:R:3:vel:R:3:forces:R:3
S 1.01038252 1.62839001 11.29210526 0.00367288 0.00072909 -0.00599157 -0.15738193 -0.15557702 0.18682505
S 1.03070232 11.12655948 11.49447619 0.00122770 -0.00041165 0.00010484 -0.77027763 -0.65257795 0.20466986
S 0.99150846 20.58763498 11.48872618 -0.00203453 0.00027039 0.00610909 -0.35465158 -0.02520828 0.18562211
S 0.90378528 30.19506179 11.57990897 -0.00427856 -0.00033456 0.00103588 1.18013300 -0.45006522 0.03047255
S 11.96241426 1.52582400 11.40949377 -0.00290512 0.00026987 -0.00054369 0.16194981 0.07556206 -0.60184450
S 11.96493763 11.04837129 11.32052659 0.00269411 -0.00320030 -0.00352541 0.05052467 0.05800693 0.04036466
S 11.88520293 20.61763955 11.42585939 0.00090875 0.00431688 -0.00212084 0.54910961 -0.68193153 0.12825981
S 11.98092551 30.13860970 11.27452014 -0.00072397 -0.00583650 0.00043151 0.00202337 -0.48999239 1.00908259
S 22.95918487 1.62394493 11.23244807 -0.00114365 0.00247540 0.00169818 -0.46059282 -0.71809087 0.13049789
S 23.00318380 11.21567504 11.30217189 -0.00399373 -0.00120870 0.00707613 -0.18050891 -0.98876709 0.43625265
S 22.97535893 20.58772583 11.32184492 -0.00000377 0.00060709 0.00137755 0.26339570 -0.16701091 0.71544417
S 22.95657707 30.24756841 11.43079837 0.00290495 0.00467649 -0.00408517 -0.47703200 -0.33583370 -0.36158563
S 34.03491220 1.59664855 11.53116038 0.00311895 0.00069246 0.00063632 -0.59050199 0.02473694 -0.80923795
S 34.07105308 11.17104334 11.34134385 -0.00960473 0.00091106 0.00308412 -1.18504259 -0.34512113 0.42900547
S 33.98785767 20.63861503 11.34734987 -0.00023603 0.00319199 -0.00297829 0.19495039 0.52935563 -0.10078946
S 33.86853555 30.23959970 11.45695353 -0.00267005 0.00422772 0.00180283 0.58046288 -0.11092809 0.35486975
S 3.62303971 3.24382340 11.38571540 -0.00218943 0.00347160 -0.00035704 0.23549220 -0.88462540 -0.37238179
S 3.53187774 12.74370946 11.53015197 -0.00098847 0.00171848 -0.00222144 0.01639632 -0.53645727 -0.69180560
S 3.72087096 22.16214258 11.44975077 -0.00039273 -0.00092959 0.00140810 -0.90994831 -0.65681955 -0.12345164
S 3.72066209 31.67146731 11.59696899 0.00088361 0.00082428 -0.00220450 -0.38723257 -0.11417850 -0.00366127
S 14.61238361 3.15740675 11.35484159 -0.00461990 -0.00106006 0.00086222 0.65639778 -0.33109259 0.50640519
S 14.63373696 12.62548568 11.44549187 0.00102779 0.00698000 0.00316873 -0.16114912 0.18977884 -0.92507653
S 14.75075409 22.37360226 11.51943091 0.00015219 0.00166132 -0.00341964 -0.85087595 -1.90938574 -0.00564828
S 14.59960671 31.67935711 11.43456210 -0.00145221 0.00053696 0.00030908 0.40390493 0.15192352 0.31867803
S 25.57775463 3.09030810 11.34297144 -0.00442738 0.00093455 -0.00122467 0.11815414 0.92628260 0.04967873
S 25.73022180 12.72038323 11.37098061 -0.00285303 0.00255306 0.00144659 -0.37018091 -1.44466225 -0.84490525
S 25.72641552 22.26961794 11.40280933 0.00224290 0.00168472 0.00013150 0.21376722 0.05387298 0.49788578
S 25.59235146 31.74221751 11.54917319 -0.00167903 0.00326662 -0.00243552 -0.05510299 0.21931697 -0.33637921
S 36.70398015 3.27240403 11.33938868 0.00223080 -0.00133001 0.00187594 -0.06865030 -0.66582660 0.58158900
S 36.74409029 12.66649777 11.45497642 -0.00271897 -0.00021268 0.00012340 -0.60642492 -0.09626323 -0.23838772
S 36.66304684 22.27923874 11.32692061 -0.00444291 -0.00070105 0.00022711 -0.22691407 -0.44720253 -0.09989163
S 36.73100930 31.82846995 11.61881807 -0.00619360 0.00800129 0.00238345 -0.52851440 0.25918536 -0.05424382
S 0.93437281 1.63986716 8.18209654 -0.00084666 0.00280881 0.00045338 -0.07914872 -0.55254678 -0.13372067
S 0.94133105 11.06933998 8.33081942 -0.00198460 -0.00177289 0.00418347 0.61244262 -0.04982625 -0.88239717
S 0.93278191 20.42952779 8.28426193 0.00404526 0.00081461 0.00079842 -0.04014051 1.53814605 0.09480356
S 1.06372299 30.13435553 8.40372060 -0.00247469 0.00114087 -0.00102622 -0.94637261 -0.70698851 0.19355224
S 12.03613333 1.56286656 8.14093419 0.00129680 -0.00147108 0.00523735 -0.56353939 -0.04782917 0.35519946
S 11.94874317 11.02788560 8.06737140 -0.00172335 0.00388426 -0.00002915 -0.05116833 0.34902472 1.33086585
S 11.94171844 20.69350999 8.26044734 0.00404543 -0.00015486 0.00181318 0.05832382 -0.40863815 0.27588916
S 11.98396756 30.04566776 8.22301286 0.00339563 -0.00154805 0.00178214 0.58183635 -0.03484415 -0.10626961
S 22.95169746 1.50951302 8.06489394 0.00070916 -0.00178097 -0.00129156 -0.01059136 0.14585199 0.65594098
S 23.06823986 11.17282491 8.08615024 0.00056269 0.00160391 -0.00026832 -0.79880740 -0.71325663 0.80844634
S 23.01039274 20.65916848 8.21603240 0.00328087 -0.00082144 0.00149399 -0.13562855 0.19793632 0.23225351
S 23.01295298 30.12404235 8.22472381 0.00561233 -0.00187238 -0.00502011 -0.63202348 0.62470009 0.64348993
S 33.92684341 1.50051686 8.29070736 -0.00020140 0.00316386 0.00176998 0.53784233 0.34009376 -0.96301873
S 33.98946376 11.19086423 8.21935928 -0.00011713 -0.00149261 0.00437580 0.52100653 -0.38143625 -1.15115806
S 33.98860684 20.63534463 8.03677139 -0.00249061 -0.00153577 0.00038048 0.18230966 0.42246189 1.19726590
S 33.94934111 30.26339731 8.33400814 0.00101534 0.00114840 0.00043895 0.32236505 0.68519356 -0.25183372
S 3.66262015 3.17861718 8.17679618 0.00133381 0.00200075 -0.00519549 0.95582087 0.04583929 0.35612102
S 3.65792468 12.78071665 8.33947047 -0.00281285 -0.00021456 0.00022465 -0.23231028 -0.60349897 0.17925697
S 3.61388235 22.06518836 8.24505892 0.00297090 -0.00373318 0.00274522 0.42299051 0.80875016 0.93370423
S 3.65580677 31.67413872 8.37861679 -0.00012733 -0.00156311 0.00350174 -0.17934210 0.08823832 -0.18421472
S 14.66133757 3.16977593 8.09965285 -0.00111486 0.00368274 0.00150828 -0.13255111 -0.71869057 0.70399622
S 14.74853082 12.59542270 8.18058408 -0.00330083 -0.00075923 0.00023156 0.22869573 0.36966673 0.25549012
S 14.62864056 22.16276197 8.28885321 -0.00284937 0.00014954 0.00211138 0.17870819 0.55019573 0.83059079
S 14.82799658 31.71871996 8.28049271 -0.00256863 0.00291731 -0.00078713 -1.37230494 -0.81169208 -0.21773890
S 25.78545529 3.11312655 8.17691634 -0.00115628 0.00276121 0.00048332 -0.54633033 0.53989007 0.03459887
S 25.74453613 12.69247264 8.16694964 -0.00141235 -0.00041351 -0.00557102 0.48078610 0.06279482 0.11585794
S 25.69131572 22.31783647 8.33202816 -0.00276641 0.00145611 0.00193178 0.50298132 -0.41314893 -0.99957784
S 25.75264172 31.78669676 8.33101545 0.00345523 0.00318660 0.00356239 -0.27470571 -0.03237819 0.07494839
S 36.81650859 3.12886515 8.24144794 0.00260672 0.00484872 -0.00540526 -0.52796824 0.28507350 0.20997481
S 36.77214527 12.69401475 8.32086995 -0.00157623 0.00418327 -0.00033323 -0.42412453 -0.18414788 -1.00435475
S 36.75796520 22.33066795 8.13200496 0.00093719 -0.00278286 -0.00444975 -0.60555660 -0.54310792 0.31301089
S 36.77583789 31.78402222 8.47285945 0.00160973 -0.00039446 0.00284227 -0.81249259 -0.17020301 -1.05348108
S 6.53067274 1.68256208 11.28838815 0.00048790 0.00248544 -0.00204020 0.27656633 -0.57331645 0.63145669
S 6.35942395 11.00500462 11.37316525 -0.00139948 -0.00074499 -0.00083785 0.06031458 -0.26934017 0.56991586
S 6.40432934 20.47936290 11.40988317 -0.00075242 0.00363136 -0.00208899 1.41517061 0.32123941 -1.47490963
S 6.60158776 30.00476506 11.47029875 -0.00111813 -0.00034501 -0.00027364 -1.31453101 0.94505220 -0.71014514
S 17.40060446 1.51527923 11.34826991 0.00548322 -0.00292400 0.00452616 0.06448038 0.05696942 0.18064100
S 17.51655888 11.05112765 11.30008851 -0.00480310 -0.00219957 0.00116000 0.93471729 -0.30856834 0.62925023
S 17.40973645 20.57126712 11.47392560 -0.00050784 0.00080647 0.00134136 0.46015911 0.81860165 0.05335997
S 17.46518940 30.17234773 11.53259317 -0.00761715 0.00008209 -0.00615419 0.90595016 0.60801983 -1.08029387
S 28.39734680 1.59249972 11.38460946 -0.00189210 0.00065200 0.00015936 1.14122091 -0.31420412 0.18990552
S 28.54319474 11.04253085 11.27594189 -0.00423061 -0.00128486 0.00251103 -0.38485231 0.18131054 0.07690621
S 28.52336371 20.71073053 11.27923690 -0.00372513 -0.00383578 -0.00042049 0.25739980 -0.80684592 0.53394355
S 28.47984284 30.25102806 11.41656333 0.00305195 -0.00183415 -0.00084140 -0.04547421 -0.64732266 1.21888914
S 39.58668350 1.68316119 11.41046120 0.00347483 0.00245933 -0.00068246 -0.48855062 -0.37655129 0.42058739
S 39.52315728 11.01315098 11.38889358 0.00006291 -0.00347720 0.00056007 0.22815121 0.33892602 0.35938165
S 39.41438032 20.53348570 11.28199402 0.00135518 -0.00205650 0.00011427 -0.19671311 0.91600404 -0.10036454
S 39.50632561 30.15847369 11.72676457 -0.00246380 0.00114524 0.00441618 0.11170647 0.00203134 -0.15829009
S 9.30036424 3.16767326 11.42219845 -0.00138773 0.00390020 0.00248104 0.46866494 -0.24925971 -0.63007420
S 9.26306342 12.70833971 11.31827755 0.00074816 -0.00025376 -0.00112348 -0.11999936 0.22823705 0.50830183
S 9.18711027 22.12206094 11.46553191 -0.00051166 0.00087553 -0.00297599 0.01570839 0.18770592 0.96590159
S 9.28066164 31.64501178 11.29011341 -0.00192579 0.00413663 0.00054382 -0.35845062 0.26270244 0.34850403
S 20.09304595 3.10239855 11.26725186 0.00201256 0.00373170 -0.00143180 0.20823421 -0.08502367 0.21797307
S 20.27834095 12.71495636 11.28374677 -0.00199707 0.00741025 -0.00241830 -0.07411746 -0.38547958 0.53695156
S 20.28988326 22.32323972 11.34163230 0.00292814 0.00175327 -0.00054849 -0.29705503 -1.44496879 0.32992300
S 20.08290081 31.80061841 11.39568375 0.00184614 -0.00148665 -0.00163909 0.33409896 0.17851017 0.60207106
S 31.20435381 3.16689992 11.31428356 -0.00372239 0.00218185 -0.00097471 -0.13449667 -0.38825112 0.64200013
S 31.12941058 12.69391288 11.35415827 -0.00415665 -0.00003309 -0.00064621 0.23911053 0.16544545 -0.79030731
S 31.16216097 22.27147142 11.42715795 0.00055159 -0.00033025 0.00181992 0.56017702 0.82039511 -0.39634340
S 31.10656253 31.79852530 11.43903748 0.00273738 0.00110093 -0.00115000 -0.38524703 1.47624375 0.39831607
S 42.22686351 3.10331801 11.33985085 0.00016526 -0.00318633 0.00357099 -0.83141973 0.42913651 -0.58681505
S 42.19992047 12.68154810 11.53892731 -0.00053031 0.00088059 0.00008440 -0.59421740 -0.67382077 -0.40351191
S 42.13865990 22.09987774 11.41824465 -0.00349199 0.00104738 0.00232014 0.10511049 1.96135592 0.38857027
S 42.22202429 31.83439575 11.70360197 -0.00164045 0.00315107 -0.00483791 0.93769268 0.14481283 -1.03310445
S 6.48671529 1.53899901 8.17871027 0.00165677 -0.00259267 0.00092489 0.12086111 0.43855466 0.25087640
S 6.32558738 11.09513774 8.32659308 -0.00321101 0.00056037 0.00514995 0.25194868 0.15504156 -0.41956656
S 6.41164539 20.64356234 8.26936744 0.00188199 0.00149153 0.00107577 -0.16499412 -0.81286718 -0.00794521
S 6.35623994 30.01105092 8.26720823 -0.00368314 -0.00366522 -0.00124982 0.20095538 -0.05909098 0.26556456
S 17.28485456 1.49521320 8.19592160 0.00269322 -0.00027225 0.00373750 0.59853224 0.12362614 -0.61575550
S 17.51104533 11.06854841 8.19288307 -0.00198115 0.00212339 0.00006705 0.23889276 -0.17964567 0.10757173
S 17.31686063 20.65579551 8.34679549 0.00160854 -0.00183932 -0.00084445 0.87085787 -0.34677098 -0.63013879
S 17.45657636 30.22608330 8.24848800 0.00108797 -0.00143450 -0.00349359 -0.20861073 -0.87555471 1.03673851
S 28.49714185 1.50061670 8.20704619 -0.00108352 -0.00301033 0.00360071 -0.17500549 0.22236089 0.26302792
S 28.39784973 11.01708019 8.11404290 0.00134509 0.00011468 -0.00301077 0.75394715 0.55825891 -0.09068875
S 28.49457763 20.67332734 8.16531446 0.00421261 -0.00541799 -0.00381140 -0.20935438 -0.00924692 0.40093347
S 28.52723229 30.16196409 8.28363930 -0.00466646 -0.00109545 0.00134624 -0.89899850 0.17146789 0.52127246
S 39.64201438 1.46532536 8.21046404 0.00309077 -0.00241306 -0.00118951 -1.25242982 0.57236348 0.65332091
S 39.53883258 11.11413723 8.25410935 0.00080777 0.00147455 0.00540719 -0.53387307 -0.64886651 -0.22504006
S 39.53641103 20.60094674 8.16449771 -0.00667732 -0.00178044 0.00058365 -0.57268049 -0.02566429 0.30086861
S 39.47138354 30.19941525 8.50114483 -0.00708712 0.00205309 0.00562181 -0.31178917 -0.06253472 -0.58422415
S 9.28117139 3.12016429 8.10639757 0.00407113 -0.00042255 0.00095814 0.49234150 0.36630005 0.91423748
S 9.22157025 12.72766297 8.27009648 -0.00361163 0.00096514 0.00353925 -0.55113616 -0.44776510 -0.10518336
S 9.10497655 22.17368209 8.30436345 -0.00299156 0.00276942 -0.00031104 0.82529289 0.22868601 -0.42166937
S 9.12250505 31.64038608 8.27767842 0.00235410 -0.00246492 -0.00575238 1.13034316 0.47400071 -1.03500571
S 20.14310609 3.10667966 8.22314723 0.00081112 0.00114334 0.00474742 -0.41737436 0.22219170 -0.68905121
S 20.30052656 12.65907924 8.15087298 -0.00215662 -0.00143223 0.00166141 0.33339098 0.28782016 0.37525090
S 20.24214342 22.23366509 8.28580882 0.00031909 -0.00146619 0.00161117 -0.02809393 0.11405216 -0.18832730
S 20.13325877 31.86638829 8.30902930 0.00053001 -0.00309724 -0.00275270 0.09533509 -0.71067882 -0.52477729
S 31.21829302 3.06844532 8.22874339 0.00065366 0.00325891 -0.00036938 -0.03150360 0.15188968 -0.25194826
S 31.12069680 12.74965144 8.15699473 0.00285332 0.00365496 -0.00210914 0.01065187 -0.39577806 -0.25707444
S 31.19050803 22.25061190 8.27575320 -0.00526276 -0.00584385 -0.00240737 0.09354195 0.56487632 -0.06120434
S 31.16178351 31.80767234 8.29898541 0.00215049 -0.00124498 -0.00038311 -0.06532797 0.88070549 0.27691338
S 42.32339095 3.08552249 8.17442507 0.00110048 -0.00008274 -0.00153411 -0.82477550 0.61859028 0.04406086
S 42.26397042 12.57671280 8.27687705 0.00025241 0.00046212 0.00541729 -0.24678127 0.32915352 0.00636723
S 42.31697256 22.23652973 8.33714220 -0.00168631 -0.00205898 -0.00492787 -0.23110782 -0.26649716 -0.83564148
S 42.32901656 31.76589389 8.42936032 -0.00083071 -0.00142751 -0.00077975 -0.63395791 0.29194499 -0.11325096
S 0.96094878 4.65897706 11.30175023 0.00030067 -0.00300265 0.00008417 0.14752245 1.39134020 0.07971955
S 0.84402166 14.25874429 11.42212619 0.00346098 0.00139357 -0.00183364 0.00251762 0.01707419 -0.10860858
S 0.96443652 23.72730320 11.45295596 -0.00137801 -0.00010017 -0.00527956 -0.33664487 0.06530076 0.76706919
S 0.99608741 33.38013525 11.59866959 -0.00088285 0.00040113 -0.00579807 -0.21526127 -0.28318036 0.04292074
S 12.04328257 4.71649143 11.34625135 0.00234845 -0.00362039 -0.00062921 -0.89747167 0.29236927 0.63026575
S 11.90035348 14.15589287 11.37142978 0.00153791 0.00559775 0.00138919 1.85227159 0.48736632 -0.13915156
S 11.89834399 23.83560039 11.51334895 0.00592374 0.00496111 0.00043479 0.01718647 -0.50508370 0.06558345
S 12.01234505 33.25620510 11.29638895 -0.00249031 0.00507643 0.00332124 -0.57437337 0.57090940 0.83342347
S 23.02525654 4.66126648 11.36101420 -0.00027715 -0.00100688 -0.00011533 -0.47188076 0.05385371 -0.34784605
S 23.10820568 14.22946716 11.30945254 -0.00350359 -0.00016183 0.00225951 -0.93013581 0.56271340 0.29173047
S 23.06127340 23.88449656 11.36214478 -0.00087326 -0.00039504 -0.00175821 -0.18252029 -0.16774041 0.75195496
S 22.97190066 33.38278603 11.41608432 0.00093612 0.00121309 -0.00600694 -0.47361836 -0.28282924 0.42175937
S 34.05580190 4.70491464 11.32560099 0.00169469 -0.00033642 0.00148202 -0.54544124 0.41776560 0.33153968
S 33.91763818 14.21115477 11.40143872 -0.00224166 0.00029391 0.00004665 0.05008481 0.90944113 -0.77047711
S 34.08382561 23.83604666 11.40542137 0.00271100 0.00070733 0.00072220 -0.77977364 -0.01839504 -0.32594866
S 33.96823147 33.35148890 11.61442256 0.00220179 -0.00176402 0.00160939 -0.24633263 0.43690623 -0.08763607
S 3.74706893 6.38893096 11.28052601 -0.00136621 -0.00055366 -0.00351303 -0.41372401 -0.52948842 0.98326177
S 3.60815953 15.85313631 11.45569283 -0.00086561 0.00059782 0.00211769 0.02162739 0.03325266 0.58999953
S 3.67724119 25.28982338 11.62915469 -0.00070946 -0.00180086 -0.00033037 -0.00322676 1.03810052 -0.70972727
S 3.66750888 34.92597402 11.48139580 0.00230969 0.00259618 0.00605356 -0.23301129 0.89932740 -0.24421325
S 14.70460690 6.35524090 11.35467331 -0.00731379 0.00249669 0.00174708 -0.43737821 0.08443293 -0.19329324
S 14.72458073 15.87469406 11.46182853 -0.00401426 -0.00161084 0.00034664 -0.40731357 -0.45072003 -0.51307528
S 14.65388894 25.35194807 11.52771400 0.00386717 0.00068424 0.00194427 0.63607614 -0.23644928 0.38001286
S 14.61220616 34.95817094 11.37626167 0.00297343 -0.00072286 0.00052841 -0.40041135 -0.34573885 0.39005798
S 25.69063161 6.41692305 11.35512800 -0.00074150 -0.00189415 -0.00378008 0.14559044 -0.88663337 0.90465238
S 25.62320520 15.90015693 11.37039601 -0.00368012 0.00008526 -0.00289748 0.71024055 0.32796219 -0.29336199
S 25.80294135 25.52161842 11.46354980 0.00242360 -0.00081434 0.00207125 -0.52544061 -0.55423205 0.08596291
S 25.62960924 34.99838376 11.59046752 -0.00309791 -0.00053457 -0.00412850 -0.31455183 0.55758609 -1.15710105
S 36.70877178 6.43972024 11.44829910 -0.00315426 -0.00074575 -0.00330817 -0.25581843 -0.34727676 -0.02325093
S 36.70022182 15.91218821 11.40130980 0.00009445 0.00058229 0.00338935 -0.53449258 -0.44484760 -0.02360752
S 36.65118502 25.31165340 11.42278943 -0.00072070 -0.00451293 -0.00118438 0.47415830 0.49518993 0.13202172
S 36.73538536 35.01526326 11.45680765 -0.00205751 -0.00364584 0.00278164 0.59009918 -0.29039458 0.89668200
S 0.99940117 4.76027332 8.11394325 0.00064420 -0.00268839 -0.00235060 -0.41994146 0.70550851 0.44366199
S 0.93984849 14.35590006 8.26298050 0.00008967 0.00224612 0.00279277 -0.77786282 -1.24333424 0.39055521
S 1.05012330 23.79024448 8.40537323 0.00313851 0.00094742 0.00357710 -0.99001157 0.34432247 -0.24335463
S 1.03182971 33.26980991 8.35610501 0.00135584 -0.00465409 0.00028902 -0.61385855 0.24193107 0.48817802
S 12.01793779 4.76909549 8.22212425 -0.00030730 0.00159555 -0.00258300 -0.74741483 -0.58325145 -0.75296776
S 12.00684885 14.18152508 8.17857181 -0.00001911 0.00251020 -0.00299734 0.20988642 0.46106357 0.06172865
S 11.89012624 23.80394242 8.44165123 0.00412772 0.00496818 -0.00189448 0.29017090 -0.20149535 -0.89819141
S 11.91858093 33.29944562 8.13212301 0.00216038 0.00022469 0.00020143 0.05246026 0.01302488 0.59374402
S 22.85883063 4.76707472 8.04575839 -0.00418199 -0.00025636 -0.00480670 0.79949704 -0.07380283 1.18925934
S 23.10874631 14.33720717 8.12653936 0.00105833 0.00046586 -0.00008290 -1.19025589 -0.63431439 0.48938380
S 23.03055312 23.75692641 8.32676766 0.00370940 0.00290771 -0.00254136 -0.02553008 1.02597790 -0.62538406
S 22.90101870 33.33208633 8.29089675 -0.00352657 -0.00333600 0.00464374 0.56212984 0.59574921 -0.51697598
S 33.95453487 4.73718453 8.21175234 0.00267000 -0.00579348 0.00601675 0.70449269 -0.07366319 -0.12326577
S 33.95946434 14.37529603 8.15692754 -0.00344439 -0.00139991 -0.00432415 -0.29350460 -0.61717484 0.90643252
S 33.89060248 23.81707246 8.14231647 -0.00105846 0.00051076 0.00251849 0.73793821 0.46330399 1.11782106
S 33.99389356 33.31896323 8.44140658 0.00404583 0.00435477 -0.00451608 0.03051178 0.92944407 -0.26998538
S 3.82775874 6.39290692 8.24950880 0.00189958 0.00400325 0.00700774 -0.75058262 0.38904900 -0.18002702
S 3.61370971 15.82833822 8.31427987 0.00229364 0.00152476 -0.00098468 0.40022898 0.38488950 0.05081610
S 3.80468572 25.32623270 8.34823789 -0.00261843 -0.00282206 -0.00014227 -0.91206877 -0.05111258 0.58965486
S 3.67703271 34.86912747 8.36981941 -0.00125270 -0.00274016 0.00212966 -0.17557218 0.05207571 -0.01128446
S 14.83423984 6.29910803 8.10279587 -0.00103263 -0.00050675 0.00051497 -1.20719761 0.72446113 0.84789863
S 14.72727499 15.81354182 8.20011659 -0.00288442 0.00443067 0.00213540 0.15471885 0.14977184 0.64284817
S 14.68096348 25.38349403 8.39502757 0.00076374 0.00072717 0.00124528 0.33602414 -0.14143559 -0.47463553
S 14.63428646 34.92659344 8.25799951 -0.00157149 -0.00272292 0.00485271 0.32081489 -0.11496284 -0.36368093
S 25.69185438 6.33618759 8.32759986 -0.00353304 0.00155854 0.00265008 -0.05138876 -0.24211798 -1.09589130
S 25.72374179 15.85358855 8.08913205 -0.00048444 -0.00005175 -0.00201825 -0.49188778 0.66959537 0.40741833
S 25.76784907 25.56086015 8.23835692 -0.00367423 -0.00133795 -0.00268412 0.00659331 -0.37232262 0.51834125
S 25.70298323 34.98066891 8.34339023 -0.00089984 -0.00197761 -0.00057376 -0.32894400 -0.60660532 -0.09236397
S 36.71309051 6.30037364 8.23782911 -0.00172534 0.00491453 0.00173948 0.54859504 1.01850462 -0.04515814
S 36.59080958 15.82259474 8.15516196 0.00440241 0.00086199 0.00188793 0.74761825 0.19991376 0.83868762
S 36.76949973 25.48037595 8.34768147 -0.00216497 -0.00129610 0.00171106 -0.53751154 0.31728848 -0.77125083
S 36.79896068 34.90068864 8.35433968 -0.00166589 0.00140727 -0.00062307 -0.84980477 0.40624687 0.01566005
S 6.58091594 4.68735586 11.33068350 -0.00100560 -0.00031030 0.00235719 0.33653633 -0.06757692 0.44130401
S 6.54775436 14.20136247 11.49240790 -0.00661933 0.00154701 0.00069952 -1.12970303 0.53464439 0.91998456
S 6.44649059 23.71657139 11.43409659 0.00162569 0.00368373 -0.00628983 0.89457309 0.57390333 0.58123244
S 6.53422806 33.24136421 11.49414125 0.00395964 0.00065555 0.00010321 0.13684410 -0.03784313 -0.00107382
S 17.41283130 4.62495866 11.27547438 0.00007942 -0.00536210 0.00175961 0.66306480 0.90106715 -0.30291248
S 17.54470694 14.12547762 11.40248517 -0.00525138 0.00171332 0.00004871 -0.52585478 -0.02768588 -0.39629220
S 17.53256572 23.82715012 11.38763219 -0.00229887 0.00424374 -0.00133011 0.20363132 0.20477550 1.20949444
S 17.37799034 33.42345921 11.48007226 -0.00124387 0.00201400 0.00359342 -0.59729085 -1.25167409 -0.52103784
S 28.38660686 4.84742949 11.45908548 -0.00270713 -0.00284128 0.00320884 1.40108971 -0.40922841 -0.41601175
S 28.43472811 14.27681141 11.27584639 -0.00215564 -0.00050057 -0.00015606 -0.00504948 0.93362037 0.29858346
S 28.49350357 23.84176809 11.38770709 -0.00019625 -0.00059643 0.00290339 -0.19197702 0.53155058 0.58666929
S 28.31324185 33.32366555 11.54361430 -0.00583753 0.00707900 -0.00164787 -0.04181370 -0.27562948 -0.50581455
S 39.46418396 4.73464156 11.35710472 0.00011437 0.00161574 0.00237011 0.74201804 -0.03684136 1.14574563
S 39.42041395 14.33629630 11.38600327 0.00014285 0.00074692 -0.00590101 0.12148112 -0.98173081 -0.83878747
S 39.55340648 23.70578273 11.34672467 0.00599815 0.00292294 -0.00082479 -1.45714031 1.18445305 0.12529374
S 39.59528112 33.24558127 11.66113200 0.00236758 0.00311707 -0.00081719 -1.57922511 0.89889018 -0.82539144
S 9.32355976 6.42614271 11.39479939 -0.00013811 0.00196072 0.00402151 0.29830901 -0.71261576 0.34291137
S 9.21345270 15.89081017 11.41606882 0.00190722 -0.00210267 0.00193439 0.03452961 0.19643990 -0.22040531
S 9.29318784 25.50973632 11.44448911 0.00242429 -0.00074443 0.00237490 -0.66952947 -1.51646257 0.59451466
S 9.25204800 34.85410375 11.46563971 -0.00435319 -0.00069401 -0.00133939 -0.10351816 0.56315283 0.02273930
S 20.19521270 6.25746019 11.42666223 0.00173803 0.00154487 -0.00251368 0.20311788 0.38588133 -0.64274203
S 20.16035167 15.92117841 11.37602038 0.00114407 -0.00073125 -0.00073965 1.35530994 -0.28522668 0.04629264
S 20.27413200 25.54349733 11.48795940 -0.00236083 0.00178940 0.00575997 -1.00233678 0.23458604 -0.31988118
S 20.16772962 34.98215069 11.41083742 -0.00110524 0.00140631 0.00569304 0.93672866 0.19092903 -0.42250934
S 31.24374241 6.31997914 11.31293156 0.00109110 0.00077632 -0.00047526 0.17964123 0.94303407 -0.45015024
S 31.19767907 15.97038895 11.34852374 -0.00236244 -0.00275509 -0.00259205 1.54419102 -0.53645153 -0.59777495
S 31.18906076 25.52143276 11.41022292 0.00117877 -0.00211337 -0.00087577 0.09876867 -0.30204148 0.61572759
S 31.21895697 35.02437398 11.45241128 -0.00330196 0.00650134 0.00178263 -0.09461308 -0.10716219 0.65453291
S 42.27772816 6.32684261 11.45945839 0.00522309 0.00217622 -0.00100074 0.32305561 0.24799219 -0.09559763
S 42.14393692 15.95026636 11.34689879 -0.00091009 -0.00404187 -0.00267583 0.78294077 -0.40897398 0.45504421
S 42.27639155 25.42983431 11.47699615 0.00561030 0.00194855 -0.00468112 0.17125645 -0.60328201 0.30477588
S 42.30691545 35.02883602 11.49298360 -0.00223081 -0.00009496 0.00055429 -0.08042551 -0.02182366 -0.08720097
S 6.45490203 4.76493986 8.16356618 0.00116379 -0.00009867 0.00531814 0.83633087 -0.05533509 0.34638718
S 6.43794709 14.14569019 8.29097880 -0.00257794 -0.00925002 -0.00150428 -0.32634788 0.94746555 0.07950155
S 6.39331217 23.65524998 8.32203777 -0.00264344 0.00119526 -0.00052434 0.53229244 0.41222555 -0.72503246
S 6.41176817 33.26973649 8.38632452 -0.00012373 0.00293875 -0.00060087 -0.49489641 -0.06982568 -0.32513605
S 17.37718522 4.70487146 8.18852888 0.00162823 0.00054212 0.00176756 0.38258429 -0.05832247 -0.17666076
S 17.46085457 14.18477813 8.23716955 -0.00105683 -0.00022079 0.00198356 0.40554629 1.01987582 0.16722697
S 17.43901702 23.79200263 8.33747047 0.00143490 -0.00245501 -0.00156801 0.26847399 0.71369919 -0.94673854
S 17.38864297 33.30825209 8.27260122 0.00460938 0.00545151 0.00268685 -0.15904977 0.02488800 -0.40255603
S 28.43712035 4.72695706 8.19708879 0.00329676 -0.00374765 0.00156256 0.02191705 -0.09153233 0.06784938
S 28.45012424 14.33921142 8.15203115 -0.00111793 -0.00289693 -0.00190410 -0.31541591 -0.04129767 0.19474640
S 28.45063345 23.86027597 8.18681046 0.00002177 0.00515874 0.00141641 -0.20030883 0.47843411 0.79679315
S 28.39660532 33.38999841 8.36609205 -0.00256081 0.00203874 -0.00132625 -0.05158713 0.09959738 -0.47893171
S 39.53120126 4.75353467 8.32774773 -0.00020661 -0.00378573 -0.00042351 -0.16995957 0.53027605 -0.93236569
S 39.42906294 14.18301624 8.26106707 -0.00454486 0.00165319 -0.00082533 0.27318395 0.62195102 -0.33756517
S 39.40886154 23.83451900 8.19872856 0.00040679 -0.00062215 0.00483301 0.90014131 -0.25161004 0.04185394
S 39.44106325 33.35110487 8.37962244 0.00213542 -0.00042690 -0.00156404 0.93942599 -0.57478428 0.08302124
S 9.25534814 6.28812368 8.16461830 0.00437459 -0.00189806 0.00005547 -0.19853123 0.45907597 0.57673103
S 9.15756071 15.88646616 8.21889092 -0.00049805 0.00177582 -0.00658641 -0.08657476 -0.51235172 0.47043200
S 9.11674760 25.30792323 8.23171082 0.00435702 -0.00101407 0.00460444 0.56524791 -0.41116217 -0.08903442
S 9.09338589 34.91322018 8.29973922 -0.00221662 0.00101294 0.00039052 0.75850220 0.21638843 -0.08853735
S 20.09832399 6.28111412 8.10614293 -0.00310738 0.00343693 0.00239188 0.74875887 -0.01510047 0.39778177
S 20.21604060 15.89807386 8.21379505 0.00214660 -0.00000810 0.00141984 -0.82661481 -0.59213235 0.11529657
S 20.13394214 25.47018636 8.29790038 0.00261486 -0.00325275 0.00380700 0.36641638 -0.38357359 -0.41726989
S 20.25653325 34.94138892 8.12652029 -0.00016510 -0.00112077 -0.00101943 -0.48309625 -0.17864338 0.84544807
S 31.21868657 6.17528100 8.12945789 0.00079750 -0.00086580 0.00271627 0.15189537 1.05915555 0.34628504
S 31.18675204 15.92796277 8.05862194 -0.00021946 0.00238582 0.00475022 0.34561940 -0.44926857 0.85752710
S 31.23386768 25.35859725 8.27454211 0.00035568 0.00431476 -0.00082746 -0.86980259 0.76613176 -0.43283364
S 31.21406784 34.82730455 8.32036843 -0.00096835 -0.00021130 -0.00351142 -0.01470589 1.29359568 -0.19729768
S 42.23740230 6.36443371 8.24165466 -0.00120222 0.00144754 -0.00691446 0.15532152 0.40531347 -0.05869027
S 42.27329289 15.87725306 8.19420810 0.00578029 0.00201380 0.00475826 -0.32537605 0.15970437 0.75519864
S 42.29715797 25.47753709 8.32417064 0.00054381 -0.00157778 -0.00318167 -0.42693544 -0.80874745 0.43410572
S 42.11306628 34.79580886 8.40217608 -0.00031792 -0.00597750 0.00149026 1.28070012 0.52456646 -0.42958656
S 1.02132964 7.87932185 11.38552422 0.00318765 -0.00096932 0.00024471 -0.37302175 -0.12774550 0.13636082
S 0.96491800 17.40684465 11.49607410 0.00242560 0.00432741 -0.00286938 -0.59253319 0.10969134 -0.53165992
S 1.04105387 26.91217656 11.52375689 0.00009473 -0.00171366 -0.00401724 -0.23096538 0.24607355 0.60413672
S 0.96564729 36.62544857 11.48204378 -0.00264641 0.00328023 0.00103605 0.20476309 -0.04653663 -1.25122160
S 11.98023001 7.93725541 11.29570104 -0.00156203 -0.00267149 -0.00009772 0.63635238 -0.62143122 0.15945719
S 12.00429864 17.32865483 11.18229663 0.00260770 0.00047206 -0.00028277 -0.58923182 0.89586595 2.12970287
S 11.84948764 26.93793738 11.38354107 0.00370876 -0.00258517 0.00038866 0.59740898 0.35554225 0.21389058
S 12.04608509 36.48861530 11.34666314 0.00106828 -0.00148000 0.00060692 -0.92470100 0.15086666 0.12345431
S 22.94684818 7.94237736 11.28807247 0.00652744 -0.00002288 -0.00135403 -0.37523629 -0.35386685 0.18538118
S 22.91857025 17.46010348 11.18920463 -0.00071353 0.00072823 -0.00523764 0.25952702 0.14095783 0.87167835
S 22.97759144 27.09958099 11.36752569 -0.00299491 0.00305699 -0.00330932 -0.28711655 -1.09527031 0.33530540
S 22.90122691 36.56104149 11.34376626 0.00037233 0.00201707 0.00014554 -0.32390663 0.42461277 -0.28469029
S 34.02074020 7.89624059 11.27391002 0.00382514 0.00108254 -0.00274569 -0.92258342 0.79392217 0.20764734
S 33.94369569 17.54139302 11.30200850 -0.00223793 0.00563506 0.00162249 0.13389963 -0.12977962 0.23844777
S 33.90258226 26.97379316 11.34163116 -0.00497481 0.00517294 -0.00199269 -0.01097306 0.69710332 -0.08465972
S 33.92802404 36.55330781 11.54259813 -0.00141113 -0.00466109 0.00043175 0.34358501 0.31275805 -1.08785822
S 3.53040673 9.52709088 11.55568688 0.00020691 -0.00446247 -0.00082681 1.01077014 -0.98794812 -0.54793981
S 3.63598168 19.01376754 11.51926413 0.00040234 0.00046051 0.00164519 -0.23255245 -0.72648301 -0.54749841
S 3.75489399 28.49479857 11.62068471 0.00075990 0.00002467 0.00423824 -0.14111656 0.20392557 -0.12917033
S 3.66054229 0.04836026 11.26773369 0.00051598 0.00150048 -0.00295847 0.83274669 -0.40997816 0.93526346
S 14.72600096 9.45253276 11.37351550 0.00017272 0.00421213 0.00258418 -0.45039551 0.68734079 0.20141308
S 14.68258140 18.98399086 11.49208505 0.00247582 -0.00203384 0.00008355 -0.52786909 0.35805464 -0.20830020