 running on   48 total cores
 distrk:  each k-point on   48 cores,    1 groups
 distr:  one band on   12 cores,    4 groups
 using from now: INCAR     
 vasp.5.4.4.18Apr17-6-g9f103f2a35 (build Aug 21 2024 10:56:42) complex          
  
 POSCAR found type information on POSCAR  S  Mo Ni
 POSCAR found :  3 types and      43 ions
 scaLAPACK is switched off

 ----------------------------------------------------------------------------- 
|                                                                             |
|  ADVICE TO THIS USER RUNNING 'VASP/VAMP'   (HEAR YOUR MASTER'S VOICE ...):  |
|                                                                             |
|      You have a (more or less) 'large supercell' and for larger cells       |
|      it might be more efficient to use real space projection opertators     |
|      So try LREAL= Auto  in the INCAR   file.                               |
|      Mind:          For very  accurate calculation you might also keep the  |
|      reciprocal projection scheme          (i.e. LREAL=.FALSE.)             |
|                                                                             |
 ----------------------------------------------------------------------------- 

 LDA part: xc-table for Pade appr. of Perdew
 POSCAR, INCAR and KPOINTS ok, starting setup
 FFT: planning ...
 WAVECAR not read
 entering main loop
       N       E                     dE             d eps       ncg     rms          rms(c)
DAV:   1     0.357539330578E+04    0.35754E+04   -0.17153E+05  1240   0.115E+03
DAV:   2     0.738777362242E+02   -0.35015E+04   -0.33681E+04  1192   0.334E+02
DAV:   3    -0.265755983748E+03   -0.33963E+03   -0.33230E+03  1200   0.111E+02
DAV:   4    -0.279581331702E+03   -0.13825E+02   -0.13550E+02  1232   0.231E+01
DAV:   5    -0.280114893344E+03   -0.53356E+00   -0.53071E+00  1328   0.428E+00    0.914E+01
DAV:   6    -0.286786625586E+03   -0.66717E+01   -0.10128E+00  1336   0.338E+00    0.843E+01
DAV:   7    -0.283188939571E+03    0.35977E+01   -0.16779E+00  1280   0.378E+00    0.774E+01
DAV:   8    -0.275355575661E+03    0.78334E+01   -0.42627E+01  1296   0.193E+01    0.433E+01
DAV:   9    -0.276378172272E+03   -0.10226E+01   -0.88901E+00  1408   0.106E+01    0.344E+01
DAV:  10    -0.276011479007E+03    0.36669E+00   -0.23689E+00  1432   0.769E+00    0.290E+01
DAV:  11    -0.274862290401E+03    0.11492E+01   -0.26595E+00  1464   0.857E+00    0.228E+01
DAV:  12    -0.273124623295E+03    0.17377E+01   -0.42440E+00  1376   0.716E+00    0.159E+01
DAV:  13    -0.272851464153E+03    0.27316E+00   -0.36893E+00  1400   0.944E+00    0.918E+00
DAV:  14    -0.273003259511E+03   -0.15180E+00   -0.14866E+00  1480   0.504E+00    0.607E+00
DAV:  15    -0.272695880922E+03    0.30738E+00   -0.29104E-01  1360   0.154E+00    0.552E+00
DAV:  16    -0.272182730859E+03    0.51315E+00   -0.55662E-01  1312   0.191E+00    0.441E+00
DAV:  17    -0.271891170599E+03    0.29156E+00   -0.10417E+00  1280   0.221E+00    0.336E+00
DAV:  18    -0.271869821719E+03    0.21349E-01   -0.28579E-01  1360   0.148E+00    0.279E+00
DAV:  19    -0.271807530152E+03    0.62292E-01   -0.64771E-02  1328   0.684E-01    0.261E+00
DAV:  20    -0.271773221150E+03    0.34309E-01   -0.53133E-02  1376   0.874E-01    0.210E+00
DAV:  21    -0.271780111041E+03   -0.68899E-02   -0.13035E-01  1200   0.802E-01    0.167E+00
DAV:  22    -0.271771372885E+03    0.87382E-02   -0.47084E-02  1392   0.921E-01    0.131E+00
DAV:  23    -0.271765270994E+03    0.61019E-02   -0.17205E-02  1360   0.468E-01    0.111E+00
DAV:  24    -0.271762234653E+03    0.30363E-02   -0.63057E-03  1368   0.279E-01    0.947E-01
DAV:  25    -0.271764193591E+03   -0.19589E-02   -0.13974E-02  1424   0.566E-01    0.699E-01
DAV:  26    -0.271764782860E+03   -0.58927E-03   -0.11914E-02  1360   0.399E-01    0.504E-01
DAV:  27    -0.271764736671E+03    0.46189E-04   -0.21096E-03  1144   0.138E-01    0.473E-01
DAV:  28    -0.271765079023E+03   -0.34235E-03   -0.47232E-04  1368   0.120E-01    0.443E-01
DAV:  29    -0.271764794364E+03    0.28466E-03   -0.70019E-04  1360   0.135E-01    0.392E-01
DAV:  30    -0.271763355970E+03    0.14384E-02   -0.36369E-03  1216   0.159E-01    0.281E-01
DAV:  31    -0.271763017048E+03    0.33892E-03   -0.24406E-03  1304   0.127E-01    0.191E-01
DAV:  32    -0.271763049386E+03   -0.32338E-04   -0.48096E-04  1352   0.811E-02    0.166E-01
DAV:  33    -0.271762962132E+03    0.87254E-04   -0.19765E-04  1408   0.656E-02    0.146E-01
DAV:  34    -0.271762829533E+03    0.13260E-03   -0.19255E-04  1384   0.595E-02    0.128E-01
DAV:  35    -0.271762750909E+03    0.78624E-04   -0.23098E-04  1280   0.415E-02    0.103E-01
DAV:  36    -0.271762736873E+03    0.14036E-04   -0.13761E-04  1384   0.561E-02    0.852E-02
DAV:  37    -0.271762753979E+03   -0.17106E-04   -0.63664E-05  1152   0.227E-02    0.773E-02
DAV:  38    -0.271762759148E+03   -0.51687E-05   -0.18324E-05  1248   0.176E-02    0.666E-02
DAV:  39    -0.271762757570E+03    0.15783E-05   -0.68373E-06  1176   0.129E-02    0.579E-02
DAV:  40    -0.271762751922E+03    0.56479E-05   -0.88852E-06  1232   0.155E-02    0.470E-02
DAV:  41    -0.271762748825E+03    0.30973E-05   -0.91972E-06  1144   0.134E-02    0.414E-02
DAV:  42    -0.271762744489E+03    0.43358E-05   -0.13424E-05  1284   0.121E-02    0.292E-02
DAV:  43    -0.271762743443E+03    0.10453E-05   -0.52714E-06  1060   0.905E-03    0.275E-02
DAV:  44    -0.271762744297E+03   -0.85349E-06   -0.16572E-06   608   0.558E-03
   1 F= -.28629341E+03 E0= -.28629341E+03  d E =-.331632E-33  mag=     0.0000
