 vasp.5.4.4.18Apr17-6-g9f103f2a35 (build Aug 21 2024 10:56:42) complex          
  
 executed on             LinuxIFC date 2026.06.14  17:15:53
 running on   48 total cores
 distrk:  each k-point on   48 cores,    1 groups
 distr:  one band on NCORES_PER_BAND=  12 cores,    4 groups


--------------------------------------------------------------------------------------------------------


 INCAR:
 POTCAR:    PAW_PBE S 06Sep2000                   
 POTCAR:    PAW_PBE Mo_sv 02Feb2006               
 POTCAR:    PAW_PBE Ni 02Aug2007                  
 POTCAR:    PAW_PBE S 06Sep2000                   
   VRHFIN =S : s2p4                                                             
   LEXCH  = PE                                                                  
   EATOM  =   276.8230 eV,   20.3459 Ry                                         
                                                                                
   TITEL  = PAW_PBE S 06Sep2000                                                 
   LULTRA =        F    use ultrasoft PP ?                                      
   IUNSCR =        1    unscreen: 0-lin 1-nonlin 2-no                           
   RPACOR =    1.500    partial core radius                                     
   POMASS =   32.066; ZVAL   =    6.000    mass and valenz                      
   RCORE  =    1.900    outmost cutoff radius                                   
   RWIGS  =    2.200; RWIGS  =    1.164    wigner-seitz radius (au A)           
   ENMAX  =  258.689; ENMIN  =  194.016 eV                                      
   ICORE  =        2    local potential                                         
   LCOR   =        T    correct aug charges                                     
   LPAW   =        T    paw PP                                                  
   EAUG   =  335.092                                                            
   DEXC   =    0.000                                                            
   RMAX   =    1.942    core radius for proj-oper                               
   RAUG   =    1.300    factor for augmentation sphere                          
   RDEP   =    1.954    radius for radial grids                                 
   RDEPT  =    1.744    core radius for aug-charge                              
                                                                                
   Atomic configuration                                                         
    6 entries                                                                   
     n  l   j            E        occ.                                          
     1  0  0.50     -2405.8406   2.0000                                         
     2  0  0.50      -211.7007   2.0000                                         
     2  1  1.50      -156.4958   6.0000                                         
     3  0  0.50       -17.2562   2.0000                                         
     3  1  0.50        -7.0085   4.0000                                         
     3  2  1.50        -6.8029   0.0000                                         
   Description                                                                  
     l       E           TYP  RCUT    TYP  RCUT                                 
     0    -17.2561641     23  1.900                                             
     0    -15.8743224     23  1.900                                             
     1     -7.0085400     23  1.900                                             
     1     -2.7779785     23  1.900                                             
     2     -6.8029130     23  1.900                                             
  local pseudopotential read in
  partial core-charges read in
  partial kinetic energy density read in
  atomic valenz-charges read in
  non local Contribution for L=           0  read in
    real space projection operators read in
  non local Contribution for L=           0  read in
    real space projection operators read in
  non local Contribution for L=           1  read in
    real space projection operators read in
  non local Contribution for L=           1  read in
    real space projection operators read in
    PAW grid and wavefunctions read in
 
   number of l-projection  operators is LMAX  =           4
   number of lm-projection operators is LMMAX =           8
 
 POTCAR:    PAW_PBE Mo_sv 02Feb2006               
   VRHFIN =Mo: 4p5s4d                                                           
   LEXCH  = PE                                                                  
   EATOM  =  1862.2866 eV,  136.8742 Ry                                         
                                                                                
   TITEL  = PAW_PBE Mo_sv 02Feb2006                                             
   LULTRA =        F    use ultrasoft PP ?                                      
   IUNSCR =        1    unscreen: 0-lin 1-nonlin 2-no                           
   RPACOR =    2.200    partial core radius                                     
   POMASS =   95.940; ZVAL   =   14.000    mass and valenz                      
   RCORE  =    2.500    outmost cutoff radius                                   
   RWIGS  =    2.750; RWIGS  =    1.455    wigner-seitz radius (au A)           
   ENMAX  =  242.676; ENMIN  =  182.007 eV                                      
   ICORE  =        3    local potential                                         
   LCOR   =        T    correct aug charges                                     
   LPAW   =        T    paw PP                                                  
   EAUG   =  446.014                                                            
   DEXC   =    0.000                                                            
   RMAX   =    2.563    core radius for proj-oper                               
   RAUG   =    1.300    factor for augmentation sphere                          
   RDEP   =    2.641    radius for radial grids                                 
   RDEPT  =    2.031    core radius for aug-charge                              
                                                                                
   Atomic configuration                                                         
   11 entries                                                                   
     n  l   j            E        occ.                                          
     1  0  0.50    -19819.0341   2.0000                                         
     2  0  0.50     -2799.0127   2.0000                                         
     2  1  1.50     -2502.0276   6.0000                                         
     3  0  0.50      -476.4449   2.0000                                         
     3  1  1.50      -379.1496   6.0000                                         
     3  2  2.50      -220.9367  10.0000                                         
     4  0  0.50       -64.3378   2.0000                                         
     5  0  0.50        -4.0862   1.0000                                         
     4  1  1.50       -38.4773   6.0000                                         
     4  2  2.50        -3.7535   5.0000                                         
     4  3  2.50        -1.3606   0.0000                                         
   Description                                                                  
     l       E           TYP  RCUT    TYP  RCUT                                 
     0    -64.3377829     23  2.100                                             
     0     -4.0861640     23  2.400                                             
     1    -38.4772993     23  2.100                                             
     1     13.6058260     23  2.100                                             
     2     -3.7534941     23  2.400                                             
     2     -5.1140767     23  2.400                                             
     3     -4.0817478     23  2.500                                             
  local pseudopotential read in
  partial core-charges read in
  partial kinetic energy density read in
  atomic valenz-charges read in
  non local Contribution for L=           0  read in
    real space projection operators read in
  non local Contribution for L=           0  read in
    real space projection operators read in
  non local Contribution for L=           1  read in
    real space projection operators read in
  non local Contribution for L=           1  read in
    real space projection operators read in
  non local Contribution for L=           2  read in
    real space projection operators read in
  non local Contribution for L=           2  read in
    real space projection operators read in
    PAW grid and wavefunctions read in
 
   number of l-projection  operators is LMAX  =           6
   number of lm-projection operators is LMMAX =          18
 
 POTCAR:    PAW_PBE Ni 02Aug2007                  
   VRHFIN =Ni:                                                                  
   LEXCH  = PE                                                                  
   EATOM  =  1077.6739 eV,   79.2068 Ry                                         
                                                                                
   TITEL  = PAW_PBE Ni 02Aug2007                                                
   LULTRA =        F    use ultrasoft PP ?                                      
   IUNSCR =        1    unscreen: 0-lin 1-nonlin 2-no                           
   RPACOR =    2.000    partial core radius                                     
   POMASS =   58.690; ZVAL   =   10.000    mass and valenz                      
   RCORE  =    2.300    outmost cutoff radius                                   
   RWIGS  =    2.430; RWIGS  =    1.286    wigner-seitz radius (au A)           
   ENMAX  =  269.532; ENMIN  =  202.149 eV                                      
   RCLOC  =    1.201    cutoff for local pot                                    
   LCOR   =        T    correct aug charges                                     
   LPAW   =        T    paw PP                                                  
   EAUG   =  544.565                                                            
   DEXC   =    0.000                                                            
   RMAX   =    2.357    core radius for proj-oper                               
   RAUG   =    1.300    factor for augmentation sphere                          
   RDEP   =    2.390    radius for radial grids                                 
   RDEPT  =    1.838    core radius for aug-charge                              
                                                                                
   Atomic configuration                                                         
    9 entries                                                                   
     n  l   j            E        occ.                                          
     1  0  0.50     -8206.4253   2.0000                                         
     2  0  0.50      -976.1748   2.0000                                         
     2  1  1.50      -839.0571   6.0000                                         
     3  0  0.50      -105.9991   2.0000                                         
     3  1  1.50       -66.4603   6.0000                                         
     3  2  2.50        -4.6458   9.0000                                         
     4  0  0.50        -4.4926   1.0000                                         
     4  1  1.50        -4.0817   0.0000                                         
     4  3  2.50        -1.3606   0.0000                                         
   Description                                                                  
     l       E           TYP  RCUT    TYP  RCUT                                 
     2     -4.6457903     23  2.300                                             
     2     -6.0063729     23  2.300                                             
     0     -4.4925590     23  2.300                                             
     0      5.0102601     23  2.300                                             
     1     -2.7211652     23  2.300                                             
     1     16.5183231     23  2.300                                             
  local pseudopotential read in
  partial core-charges read in
  partial kinetic energy density read in
  atomic valenz-charges read in
  non local Contribution for L=           2  read in
    real space projection operators read in
  non local Contribution for L=           2  read in
    real space projection operators read in
  non local Contribution for L=           0  read in
    real space projection operators read in
  non local Contribution for L=           0  read in
    real space projection operators read in
  non local Contribution for L=           1  read in
    real space projection operators read in
  non local Contribution for L=           1  read in
    real space projection operators read in
    PAW grid and wavefunctions read in
 
   number of l-projection  operators is LMAX  =           6
   number of lm-projection operators is LMMAX =          18
 

 ----------------------------------------------------------------------------- 
|                                                                             |
|  ADVICE TO THIS USER RUNNING 'VASP/VAMP'   (HEAR YOUR MASTER'S VOICE ...):  |
|                                                                             |
|      You have a (more or less) 'large supercell' and for larger cells       |
|      it might be more efficient to use real space projection opertators     |
|      So try LREAL= Auto  in the INCAR   file.                               |
|      Mind:          For very  accurate calculation you might also keep the  |
|      reciprocal projection scheme          (i.e. LREAL=.FALSE.)             |
|                                                                             |
 ----------------------------------------------------------------------------- 

  PAW_PBE S 06Sep2000                   :
 energy of atom  1       EATOM= -276.8230
 kinetic energy error for atom=    0.0033 (will be added to EATOM!!)
  PAW_PBE Mo_sv 02Feb2006               :
 energy of atom  2       EATOM=-1862.2866
 kinetic energy error for atom=    0.0088 (will be added to EATOM!!)
  PAW_PBE Ni 02Aug2007                  :
 energy of atom  3       EATOM=-1077.6739
 kinetic energy error for atom=    0.0038 (will be added to EATOM!!)
 
 
 POSCAR: unknown system                          
  positions in direct lattice
  No initial velocities read in
 exchange correlation table for  LEXCH =        8
   RHO(1)=    0.500       N(1)  =     2000
   RHO(2)=  100.500       N(2)  =     4000
 


--------------------------------------------------------------------------------------------------------


 ion  position               nearest neighbor table
   1  0.087  0.162  0.572-  39 2.11  28 2.44  33 2.46  25 2.48
   2  0.335  0.331  0.573-  40 2.08  37 2.09  25 2.45  26 2.48  30 2.48
   3  0.085  0.164  0.412-  28 2.39  25 2.40  33 2.41
   4  0.335  0.331  0.412-  25 2.37  30 2.39  26 2.41
   5  0.586  0.164  0.572-  37 2.08  43 2.09  38 2.09  26 2.44  27 2.44  35 2.46
   6  0.836  0.331  0.572-  38 2.08  39 2.09  42 2.09  32 2.45  27 2.46  28 2.48
   7  0.586  0.163  0.412-  26 2.39  35 2.40  27 2.41
   8  0.835  0.332  0.413-  27 2.39  32 2.40  28 2.43
   9  0.085  0.497  0.572-  42 2.08  32 2.46  29 2.48  25 2.48
  10  0.335  0.662  0.572-  40 2.07  29 2.45  30 2.47  34 2.48
  11  0.086  0.497  0.412-  29 2.40  32 2.41  25 2.41
  12  0.337  0.662  0.413-  29 2.38  30 2.39  34 2.40
  13  0.586  0.498  0.571-  41 2.09  40 2.11  38 2.13  31 2.44  30 2.45  27 2.46
  14  0.835  0.663  0.573-  41 2.07  42 2.08  32 2.47  31 2.47  36 2.51
  15  0.585  0.498  0.413-  30 2.37  31 2.38  27 2.41
  16  0.838  0.664  0.412-  36 2.38  32 2.40  31 2.42
  17  0.087  0.829  0.571-  29 2.44  33 2.45  36 2.47
  18  0.337  0.998  0.571-  37 2.07  34 2.45  26 2.46  33 2.46
  19  0.085  0.827  0.413-  36 2.37  29 2.39  33 2.41
  20  0.338  0.998  0.413-  34 2.39  33 2.40  26 2.40
  21  0.586  0.830  0.571-  43 2.10  41 2.11  35 2.44  31 2.45  34 2.46
  22  0.837  0.999  0.571-  39 2.07  43 2.10  28 2.43  35 2.47  36 2.47
  23  0.585  0.829  0.413-  34 2.39  31 2.39  35 2.41
  24  0.838  0.996  0.413-  36 2.35  28 2.40  35 2.42
  25  0.172  0.330  0.489-   4 2.37   3 2.40  11 2.41   2 2.45   1 2.48   9 2.48  26 3.16  30 3.16
                            33 3.18  29 3.19  28 3.19  32 3.21
  26  0.421  0.165  0.490-   7 2.39  20 2.40   4 2.41   5 2.44  18 2.46   2 2.48  37 2.62  30 3.15
                            27 3.16  25 3.16  35 3.17  34 3.19  33 3.20
  27  0.669  0.330  0.490-   8 2.39   7 2.41  15 2.41   5 2.44  13 2.46   6 2.46  38 2.64  26 3.16
                            30 3.17  32 3.17  35 3.18  31 3.18  28 3.19
  28  0.921  0.163  0.490-   3 2.39  24 2.40   8 2.43  22 2.43   1 2.44   6 2.48  39 2.63  36 3.16
                            33 3.17  25 3.19  32 3.19  27 3.19  35 3.20
  29  0.171  0.664  0.490-  12 2.38  19 2.39  11 2.40  17 2.44  10 2.45   9 2.48  34 3.16  33 3.16
                            30 3.17  25 3.19  36 3.20  32 3.20
  30  0.420  0.496  0.490-  15 2.37  12 2.39   4 2.39  13 2.45  10 2.47   2 2.48  40 2.64  26 3.15
                            25 3.16  31 3.17  27 3.17  29 3.17  34 3.19
  31  0.669  0.663  0.490-  15 2.38  23 2.39  16 2.42  13 2.44  21 2.45  14 2.47  41 2.65  30 3.17
                            32 3.18  34 3.18  27 3.18  35 3.18  36 3.20
  32  0.919  0.497  0.490-   8 2.40  16 2.40  11 2.41   6 2.45   9 2.46  14 2.47  42 2.64  27 3.17
                            31 3.18  36 3.19  28 3.19  29 3.20  25 3.21
  33  0.170  0.996  0.489-  20 2.40   3 2.41  19 2.41  17 2.45  18 2.46   1 2.46  34 3.16  29 3.16
                            36 3.17  28 3.17  25 3.18  26 3.20
  34  0.419  0.831  0.490-  23 2.39  20 2.39  12 2.40  18 2.45  21 2.46  10 2.48  29 3.16  33 3.16
                            35 3.17  31 3.18  30 3.19  26 3.19
  35  0.668  0.997  0.490-   7 2.40  23 2.41  24 2.42  21 2.44   5 2.46  22 2.47  43 2.62  26 3.17
                            34 3.17  27 3.18  31 3.18  36 3.18  28 3.20
  36  0.920  0.832  0.489-  24 2.35  19 2.37  16 2.38  17 2.47  22 2.47  14 2.51  28 3.16  33 3.17
                            35 3.18  32 3.19  29 3.20  31 3.20
  37  0.420  0.163  0.621-  18 2.07   5 2.08   2 2.09  26 2.62
  38  0.672  0.329  0.622-   6 2.08   5 2.09  13 2.13  27 2.64
  39  0.918  0.163  0.622-  22 2.07   6 2.09   1 2.11  28 2.63
  40  0.418  0.497  0.622-  10 2.07   2 2.08  13 2.11  30 2.64
  41  0.670  0.663  0.622-  14 2.07  13 2.09  21 2.11  31 2.65
  42  0.920  0.498  0.622-  14 2.08   9 2.08   6 2.09  32 2.64
  43  0.669  0.998  0.621-   5 2.09  21 2.10  22 2.10  35 2.62
 

IMPORTANT INFORMATION: All symmetrisations will be switched off!
NOSYMM: (Re-)initialisation of all symmetry stuff for point group C_1.

 
 
 KPOINTS: Gamma-point only                        

Automatic generation of k-mesh.
Space group operators:
 irot       det(A)        alpha          n_x          n_y          n_z        tau_x        tau_y        tau_z
    1     1.000000     0.000001     1.000000     0.000000     0.000000     0.000000     0.000000     0.000000
 
 Subroutine IBZKPT returns following result:
 ===========================================
 
 Found      1 irreducible k-points:
 
 Following reciprocal coordinates:
            Coordinates               Weight
  0.000000  0.000000  0.000000      1.000000
 
 Following cartesian coordinates:
            Coordinates               Weight
  0.000000  0.000000  0.000000      1.000000
 


--------------------------------------------------------------------------------------------------------




 Dimension of arrays:
   k-points           NKPTS =      1   k-points in BZ     NKDIM =      1   number of bands    NBANDS=    252
   number of dos      NEDOS =    301   number of ions     NIONS =     43
   non local maximal  LDIM  =      6   non local SUM 2l+1 LMDIM =     18
   total plane-waves  NPLWV = 784000
   max r-space proj   IRMAX =      1   max aug-charges    IRDMAX=  16547
   dimension x,y,z NGX =    80 NGY =   70 NGZ =  140
   dimension x,y,z NGXF=   160 NGYF=  140 NGZF=  280
   support grid    NGXF=   160 NGYF=  140 NGZF=  280
   ions per type =              24  12   7
   NGX,Y,Z   is equivalent  to a cutoff of  12.08, 12.21, 11.65 a.u.
   NGXF,Y,Z  is equivalent  to a cutoff of  24.17, 24.42, 23.29 a.u.

 SYSTEM =  unknown system                          
 POSCAR =  unknown system                          

 Startparameter for this run:
   NWRITE =      2    write-flag & timer
   PREC   = a         normal or accurate (medium, high low for compatibility)
   ISTART =      0    job   : 0-new  1-cont  2-samecut
   ICHARG =      2    charge: 1-file 2-atom 10-const
   ISPIN  =      2    spin polarized calculation?
   LNONCOLLINEAR =      F non collinear calculations
   LSORBIT =      F    spin-orbit coupling
   INIWAV =      1    electr: 0-lowe 1-rand  2-diag
   LASPH  =      T    aspherical Exc in radial PAW
   METAGGA=      F    non-selfconsistent MetaGGA calc.

 Electronic Relaxation 1
   ENCUT  =  450.0 eV  33.07 Ry    5.75 a.u.  19.04 16.49 34.57*2*pi/ulx,y,z
   ENINI  =  450.0     initial cutoff
   ENAUG  =  544.6 eV  augmentation charge cutoff
   NELM   =    200;   NELMIN=  2; NELMDL= -5     # of ELM steps 
   EDIFF  = 0.1E-05   stopping-criterion for ELM
   LREAL  =      F    real-space projection
   NLSPLINE    = F    spline interpolate recip. space projectors
   LCOMPAT=      F    compatible to vasp.4.4
   GGA_COMPAT  = T    GGA compatible to vasp.4.4-vasp.4.6
   LMAXPAW     = -100 max onsite density
   LMAXMIX     =    4 max onsite mixed and CHGCAR
   VOSKOWN=      0    Vosko Wilk Nusair interpolation
   ROPT   =    0.00000   0.00000   0.00000
 Ionic relaxation
   EDIFFG = -.1E-02   stopping-criterion for IOM
   NSW    =      0    number of steps for IOM
   NBLOCK =      1;   KBLOCK =      1    inner block; outer block 
   IBRION =     -1    ionic relax: 0-MD 1-quasi-New 2-CG
   NFREE  =      0    steps in history (QN), initial steepest desc. (CG)
   ISIF   =      2    stress and relaxation
   IWAVPR =     10    prediction:  0-non 1-charg 2-wave 3-comb
   ISYM   =     -1    0-nonsym 1-usesym 2-fastsym
   LCORR  =      T    Harris-Foulkes like correction to forces

   POTIM  = 0.5000    time-step for ionic-motion
   TEIN   =    0.0    initial temperature
   TEBEG  =    0.0;   TEEND  =   0.0 temperature during run
   SMASS  =  -3.00    Nose mass-parameter (am)
   estimated Nose-frequenzy (Omega)   =  0.10E-29 period in steps =****** mass=  -0.277E-26a.u.
   SCALEE = 1.0000    scale energy and forces
   NPACO  =    256;   APACO  = 16.0  distance and # of slots for P.C.
   PSTRESS=    0.0 pullay stress

  Mass of Ions in am
   POMASS =  32.07 95.94 58.69
  Ionic Valenz
   ZVAL   =   6.00 14.00 10.00
  Atomic Wigner-Seitz radii
   RWIGS  =  -1.00 -1.00 -1.00
  virtual crystal weights 
   VCA    =   1.00  1.00  1.00
   NELECT =     382.0000    total number of electrons
   NUPDOWN=      -1.0000    fix difference up-down

 DOS related values:
   EMIN   =  10.00;   EMAX   =-10.00  energy-range for DOS
   EFERMI =   0.00
   ISMEAR =     0;   SIGMA  =   0.01  broadening in eV -4-tet -1-fermi 0-gaus

 Electronic relaxation 2 (details)
   IALGO  =     38    algorithm
   LDIAG  =      T    sub-space diagonalisation (order eigenvalues)
   LSUBROT=      F    optimize rotation matrix (better conditioning)
   TURBO    =      0    0=normal 1=particle mesh
   IRESTART =      0    0=no restart 2=restart with 2 vectors
   NREBOOT  =      0    no. of reboots
   NMIN     =      0    reboot dimension
   EREF     =   0.00    reference energy to select bands
   IMIX   =      4    mixing-type and parameters
     AMIX     =   0.02;   BMIX     =  0.00
     AMIX_MAG =   0.80;   BMIX_MAG =  0.00
     AMIN     =   0.02
     WC   =   100.;   INIMIX=   1;  MIXPRE=   1;  MAXMIX= -45

 Intra band minimization:
   WEIMIN = 0.0000     energy-eigenvalue tresh-hold
   EBREAK =  0.99E-09  absolut break condition
   DEPER  =   0.30     relativ break condition  

   TIME   =   0.40     timestep for ELM

  volume/ion in A,a.u.               =      48.77       329.11
  Fermi-wavevector in a.u.,A,eV,Ry     =   0.928026  1.753716 11.717788  0.861233
  Thomas-Fermi vector in A             =   2.054159
 
 Write flags
   LWAVE        =      F    write WAVECAR
   LDOWNSAMPLE  =      F    k-point downsampling of WAVECAR
   LCHARG       =      F    write CHGCAR
   LVTOT        =      F    write LOCPOT, total local potential
   LVHAR        =      F    write LOCPOT, Hartree potential only
   LELF         =      F    write electronic localiz. function (ELF)
   LORBIT       =     11    0 simple, 1 ext, 2 COOP (PROOUT), +10 PAW based schemes


 Dipole corrections
   LMONO  =      F    monopole corrections only (constant potential shift)
   LDIPOL =      F    correct potential (dipole corrections)
   IDIPOL =      0    1-x, 2-y, 3-z, 4-all directions 
   EPSILON=  1.0000000 bulk dielectric constant

 LDA+U is selected, type is set to LDAUTYPE =  2
   angular momentum for each species LDAUL =    -1   -1    2
   U (eV)           for each species LDAUU =   0.0  0.0  5.1
   J (eV)           for each species LDAUJ =   0.0  0.0  0.0
 Exchange correlation treatment:
   GGA     =    PE    GGA type
   LEXCH   =     8    internal setting for exchange type
   VOSKOWN=      0    Vosko Wilk Nusair interpolation
   LHFCALC =     F    Hartree Fock is set to
   LHFONE  =     F    Hartree Fock one center treatment
   AEXX    =    0.0000 exact exchange contribution

 Linear response parameters
   LEPSILON=     F    determine dielectric tensor
   LRPA    =     F    only Hartree local field effects (RPA)
   LNABLA  =     F    use nabla operator in PAW spheres
   LVEL    =     F    velocity operator in full k-point grid
   LINTERFAST=   F  fast interpolation
   KINTER  =     0    interpolate to denser k-point grid
   CSHIFT  =0.1000    complex shift for real part using Kramers Kronig
   OMEGAMAX=  -1.0    maximum frequency
   DEG_THRESHOLD= 0.2000000E-02 threshold for treating states as degnerate
   RTIME   =   -0.100 relaxation time in fs
  (WPLASMAI=    0.000 imaginary part of plasma frequency in eV, 0.658/RTIME)
   DFIELD  = 0.0000000 0.0000000 0.0000000 field for delta impulse in time
 
 Orbital magnetization related:
   ORBITALMAG=     F  switch on orbital magnetization
   LCHIMAG   =     F  perturbation theory with respect to B field
   DQ        =  0.001000  dq finite difference perturbation B field
   LLRAUG    =     F  two centre corrections for induced B field



--------------------------------------------------------------------------------------------------------


 Static calculation
 charge density and potential will be updated during run
 spin polarized calculation
 Variant of blocked Davidson
 Davidson routine will perform the subspace rotation
 perform sub-space diagonalisation
    after iterative eigenvector-optimisation
 modified Broyden-mixing scheme, WC =      100.0
 initial mixing is a Kerker type mixing with AMIX =  0.0200 and BMIX =      0.0001
 Hartree-type preconditioning will be used
 using additional bands           61
 reciprocal scheme for non local part
 use partial core corrections
 calculate Harris-corrections to forces 
   (improved forces if not selfconsistent)
 use gradient corrections 
 use of overlap-Matrix (Vanderbilt PP)
 Gauss-broadening in eV      SIGMA  =   0.01


--------------------------------------------------------------------------------------------------------


  energy-cutoff  :      450.00
  volume of cell :     2097.04
      direct lattice vectors                 reciprocal lattice vectors
    11.007200000  0.000000000  0.000000000     0.090849626  0.000009197  0.000000000
    -0.000965000  9.532200000  0.000000000     0.000000000  0.104907576  0.000000000
     0.000000000  0.000000000 19.986500000     0.000000000  0.000000000  0.050033773

  length of vectors
    11.007200000  9.532200049 19.986500000     0.090849626  0.104907576  0.050033773


 
 k-points in units of 2pi/SCALE and weight: Gamma-point only                        
   0.00000000  0.00000000  0.00000000       1.000
 
 k-points in reciprocal lattice and weights: Gamma-point only                        
   0.00000000  0.00000000  0.00000000       1.000
 
 position of ions in fractional coordinates (direct lattice) 
   0.08663356  0.16184689  0.57170126
   0.33472539  0.33056090  0.57295844
   0.08540361  0.16400204  0.41233431
   0.33546476  0.33139268  0.41212317
   0.58598299  0.16441252  0.57153498
   0.83648855  0.33130454  0.57215631
   0.58584962  0.16347932  0.41223703
   0.83497807  0.33160965  0.41275486
   0.08535712  0.49672836  0.57201592
   0.33501357  0.66210279  0.57225774
   0.08625923  0.49733735  0.41245577
   0.33665409  0.66194536  0.41291525
   0.58589381  0.49803198  0.57108811
   0.83501620  0.66295533  0.57285810
   0.58492987  0.49846898  0.41322637
   0.83808829  0.66446639  0.41248430
   0.08717474  0.82918447  0.57079235
   0.33709042  0.99765809  0.57110709
   0.08507309  0.82691682  0.41251271
   0.33775090  0.99825855  0.41273826
   0.58594311  0.83016261  0.57133981
   0.83702720  0.99907924  0.57135386
   0.58489358  0.82872167  0.41275238
   0.83755548  0.99560032  0.41310041
   0.17185508  0.32967608  0.48945645
   0.42067856  0.16532105  0.48993150
   0.66949295  0.32975316  0.49020175
   0.92101024  0.16276641  0.49023544
   0.17113463  0.66387489  0.48963655
   0.42009087  0.49602086  0.48967308
   0.66859855  0.66320027  0.48995110
   0.91876558  0.49729486  0.49013459
   0.17024120  0.99555808  0.48927688
   0.41889702  0.83058736  0.48961500
   0.66835864  0.99665279  0.49012154
   0.91982710  0.83172546  0.48861004
   0.41980163  0.16289348  0.62093629
   0.67156534  0.32912421  0.62247982
   0.91833065  0.16349901  0.62205342
   0.41786358  0.49709542  0.62173425
   0.66968972  0.66285810  0.62245484
   0.91988553  0.49812817  0.62216207
   0.66943691  0.99780009  0.62128831
 
 position of ions in cartesian coordinates  (Angst):
   0.95343674  1.54275692 11.42630723
   3.68407032  3.15097261 11.45143386
   0.93989635  1.56330025  8.24111969
   3.69220791  3.15890130  8.23689974
   6.44987331  1.56721302 11.42298388
   9.20707706  3.15806114 11.43540209
   6.44840618  1.55831757  8.23917540
   9.19045061  3.16096951  8.24952501
   0.93906355  4.73491407 11.43259619
   3.68692244  6.31129621 11.43742932
   0.94899267  4.74071909  8.24354725
   3.70498012  6.30979556  8.25273064
   6.44856974  4.74734044 11.41405251
   9.19055056  6.31942280 11.44942842
   6.43795904  4.75150601  8.25894884
   9.22436422  6.33382652  8.24411746
   0.95874964  7.90395220 11.40814130
   3.70945893  9.50987645 11.41443185
   0.93561854  7.88233651  8.24468528
   3.71672839  9.51560015  8.24919323
   6.44879189  7.91327603 11.41908311
   9.21236168  9.52342313 11.41936392
   6.43724090  7.89954070  8.24947544
   9.21817993  9.49026137  8.25643134
   1.89132510  3.14253833  9.78252134
   4.63033351  1.57587331  9.79201592
   7.36892459  3.14327307  9.79741728
  10.13758684  1.55152197  9.79809062
   1.88307246  6.32818823  9.78612091
   4.62354556  4.72817004  9.78685101
   7.35875797  6.32175761  9.79240766
  10.11255660  4.74031406  9.79607498
   1.87291822  9.48985873  9.77893236
   4.61008176  7.91732483  9.78569020
   7.35579545  9.50029372  9.79581416
  10.12391824  7.92817343  9.76560456
   4.62068331  1.55273323 12.41034316
   7.39173641  3.13727779 12.44119292
  10.10809135  1.55850526 12.43267068
   4.59902830  4.73841296 12.42629159
   7.37076903  6.31849598 12.44069366
  10.12488331  4.74825734 12.43484221
   7.36766308  9.51123002 12.41737881
 


--------------------------------------------------------------------------------------------------------


 k-point  1 :   0.0000 0.0000 0.0000  plane waves:   45499

 maximum and minimum number of plane-waves per node :      3799     3786

 maximum number of plane-waves:     45499
 maximum index in each direction: 
   IXMAX=   19   IYMAX=   16   IZMAX=   34
   IXMIN=  -19   IYMIN=  -16   IZMIN=  -34


 parallel 3D FFT for wavefunctions:
    minimum data exchange during FFTs selected (reduces bandwidth)
 parallel 3D FFT for charge:
    minimum data exchange during FFTs selected (reduces bandwidth)


 total amount of memory used by VASP MPI-rank0    68622. kBytes
=======================================================================

   base      :      30000. kBytes
   nonl-proj :       4256. kBytes
   fftplans  :       7095. kBytes
   grid      :      19382. kBytes
   one-center:        124. kBytes
   wavefun   :       7765. kBytes
 
     INWAV:  cpu time    0.0000: real time    0.0002
 Broyden mixing: mesh for mixing (old mesh)
   NGX = 39   NGY = 33   NGZ = 69
  (NGX  =160   NGY  =140   NGZ  =280)
  gives a total of  88803 points

 initial charge density was supplied:
 charge density of overlapping atoms calculated
 number of electron     382.0000000 magnetization      43.0000000
 keeping initial charge density in first step


--------------------------------------------------------------------------------------------------------


 Maximum index for augmentation-charges          993 (set IRDMAX)


--------------------------------------------------------------------------------------------------------


 First call to EWALD:  gamma=   0.138
 Maximum number of real-space cells 3x 4x 2
 Maximum number of reciprocal cells 2x 2x 4

    FEWALD:  cpu time    0.0015: real time    0.0015


--------------------------------------- Iteration      1(   1)  ---------------------------------------


    POTLOK:  cpu time    0.2448: real time    0.2474
    SETDIJ:  cpu time    0.3553: real time    0.3564
     EDDAV:  cpu time    5.2025: real time    5.2234
       DOS:  cpu time    0.0004: real time    0.0004
    --------------------------------------------
      LOOP:  cpu time    5.8030: real time    5.8276

 eigenvalue-minimisations  :  1240
 total energy-change (2. order) : 0.3575393E+04  (-0.1715341E+05)
 number of electron     382.0000000 magnetization      43.0000000
 augmentation part      382.0000000 magnetization      43.0000000

 Free energy of the ion-electron system (eV)
  ---------------------------------------------------
  alpha Z        PSCENC =       462.75907254
  Ewald energy   TEWEN  =     89307.74010853
  -Hartree energ DENC   =   -121999.99517047
  -exchange      EXHF   =         0.00000000
  -V(xc)+E(xc)   XCENC  =      1326.77099176
  PAW double counting   =     29930.64701431   -29970.62728893
  entropy T*S    EENTRO =        -0.00000068
  eigenvalues    EBANDS =     -2016.59845461
  atomic energy  EATOM  =     36534.69703334
  Solvation  Ediel_sol  =         0.00000000
  ---------------------------------------------------
  free energy    TOTEN  =      3575.39330578 eV

  energy without entropy =     3575.39330647  energy(sigma->0) =     3575.39330613


--------------------------------------------------------------------------------------------------------




--------------------------------------- Iteration      1(   2)  ---------------------------------------


     EDDAV:  cpu time    5.0387: real time    5.0580
       DOS:  cpu time    0.0004: real time    0.0004
    --------------------------------------------
      LOOP:  cpu time    5.0392: real time    5.0584

 eigenvalue-minimisations  :  1192
 total energy-change (2. order) :-0.3501516E+04  (-0.3368133E+04)
 number of electron     382.0000000 magnetization      43.0000000
 augmentation part      382.0000000 magnetization      43.0000000

 Free energy of the ion-electron system (eV)
  ---------------------------------------------------
  alpha Z        PSCENC =       462.75907254
  Ewald energy   TEWEN  =     89307.74010853
  -Hartree energ DENC   =   -121999.99517047
  -exchange      EXHF   =         0.00000000
  -V(xc)+E(xc)   XCENC  =      1326.77099176
  PAW double counting   =     29930.64701431   -29970.62728893
  entropy T*S    EENTRO =        -0.00396912
  eigenvalues    EBANDS =     -5518.11005573
  atomic energy  EATOM  =     36534.69703334
  Solvation  Ediel_sol  =         0.00000000
  ---------------------------------------------------
  free energy    TOTEN  =        73.87773622 eV

  energy without entropy =       73.88170534  energy(sigma->0) =       73.87972078


--------------------------------------------------------------------------------------------------------




--------------------------------------- Iteration      1(   3)  ---------------------------------------


     EDDAV:  cpu time    5.0636: real time    5.0824
       DOS:  cpu time    0.0002: real time    0.0002
    --------------------------------------------
      LOOP:  cpu time    5.0638: real time    5.0826

 eigenvalue-minimisations  :  1200
 total energy-change (2. order) :-0.3396337E+03  (-0.3322958E+03)
 number of electron     382.0000000 magnetization      43.0000000
 augmentation part      382.0000000 magnetization      43.0000000

 Free energy of the ion-electron system (eV)
  ---------------------------------------------------
  alpha Z        PSCENC =       462.75907254
  Ewald energy   TEWEN  =     89307.74010853
  -Hartree energ DENC   =   -121999.99517047
  -exchange      EXHF   =         0.00000000
  -V(xc)+E(xc)   XCENC  =      1326.77099176
  PAW double counting   =     29930.64701431   -29970.62728893
  entropy T*S    EENTRO =        -0.00000000
  eigenvalues    EBANDS =     -5857.74774482
  atomic energy  EATOM  =     36534.69703334
  Solvation  Ediel_sol  =         0.00000000
  ---------------------------------------------------
  free energy    TOTEN  =      -265.75598375 eV

  energy without entropy =     -265.75598375  energy(sigma->0) =     -265.75598375


--------------------------------------------------------------------------------------------------------




--------------------------------------- Iteration      1(   4)  ---------------------------------------


     EDDAV:  cpu time    5.1752: real time    5.1941
       DOS:  cpu time    0.0002: real time    0.0002
    --------------------------------------------
      LOOP:  cpu time    5.1754: real time    5.1943

 eigenvalue-minimisations  :  1232
 total energy-change (2. order) :-0.1382535E+02  (-0.1355015E+02)
 number of electron     382.0000000 magnetization      43.0000000
 augmentation part      382.0000000 magnetization      43.0000000

 Free energy of the ion-electron system (eV)
  ---------------------------------------------------
  alpha Z        PSCENC =       462.75907254
  Ewald energy   TEWEN  =     89307.74010853
  -Hartree energ DENC   =   -121999.99517047
  -exchange      EXHF   =         0.00000000
  -V(xc)+E(xc)   XCENC  =      1326.77099176
  PAW double counting   =     29930.64701431   -29970.62728893
  entropy T*S    EENTRO =        -0.00000000
  eigenvalues    EBANDS =     -5871.57309278
  atomic energy  EATOM  =     36534.69703334
  Solvation  Ediel_sol  =         0.00000000
  ---------------------------------------------------
  free energy    TOTEN  =      -279.58133170 eV

  energy without entropy =     -279.58133170  energy(sigma->0) =     -279.58133170


--------------------------------------------------------------------------------------------------------




--------------------------------------- Iteration      1(   5)  ---------------------------------------


     EDDAV:  cpu time    5.5725: real time    5.5999
       DOS:  cpu time    0.0004: real time    0.0004
    CHARGE:  cpu time    0.1268: real time    0.1275
    MIXING:  cpu time    0.0094: real time    0.0098
    --------------------------------------------
      LOOP:  cpu time    5.7092: real time    5.7377

 eigenvalue-minimisations  :  1328
 total energy-change (2. order) :-0.5335616E+00  (-0.5307123E+00)
 number of electron     381.9999999 magnetization       8.6000035
 augmentation part       49.2645628 magnetization       9.4688915

 Broyden mixing:
  rms(total) = 0.91390E+01    rms(broyden)= 0.91390E+01
  rms(prec ) = 0.92370E+01
  weight for this iteration     100.00

 Free energy of the ion-electron system (eV)
  ---------------------------------------------------
  alpha Z        PSCENC =       462.75907254
  Ewald energy   TEWEN  =     89307.74010853
  -Hartree energ DENC   =   -121999.99517047
  -exchange      EXHF   =         0.00000000
  -V(xc)+E(xc)   XCENC  =      1326.77099176
  PAW double counting   =     29930.64701431   -29970.62728893
  entropy T*S    EENTRO =        -0.00000000
  eigenvalues    EBANDS =     -5872.10665442
  atomic energy  EATOM  =     36534.69703334
  Solvation  Ediel_sol  =         0.00000000
  ---------------------------------------------------
  free energy    TOTEN  =      -280.11489334 eV

  energy without entropy =     -280.11489334  energy(sigma->0) =     -280.11489334


--------------------------------------------------------------------------------------------------------




--------------------------------------- Iteration      1(   6)  ---------------------------------------


    POTLOK:  cpu time    0.2414: real time    0.2425
    SETDIJ:  cpu time    0.3622: real time    0.3632
     EDDAV:  cpu time    5.4933: real time    5.5142
       DOS:  cpu time    0.0004: real time    0.0004
    CHARGE:  cpu time    0.1269: real time    0.1274
    MIXING:  cpu time    0.0088: real time    0.0091
    --------------------------------------------
      LOOP:  cpu time    6.2330: real time    6.2569

 eigenvalue-minimisations  :  1336
 total energy-change (2. order) :-0.6671732E+01  (-0.1012753E+00)
 number of electron     381.9999999 magnetization      -4.6512889
 augmentation part       49.4749853 magnetization      -4.1464805

 Broyden mixing:
  rms(total) = 0.84317E+01    rms(broyden)= 0.84317E+01
  rms(prec ) = 0.85213E+01
  weight for this iteration     100.00

 eigenvalues of (default mixing * dielectric matrix)
  average eigenvalue GAMMA=   1.2855
  1.2855

 Free energy of the ion-electron system (eV)
  ---------------------------------------------------
  alpha Z        PSCENC =       462.75907254
  Ewald energy   TEWEN  =     89307.74010853
  -Hartree energ DENC   =   -121979.96857586
  -exchange      EXHF   =         0.00000000
  -V(xc)+E(xc)   XCENC  =      1322.71497073
  PAW double counting   =     30182.76493960   -30225.81291503
  entropy T*S    EENTRO =        -0.00000000
  eigenvalues    EBANDS =     -5891.68125943
  atomic energy  EATOM  =     36534.69703334
  Solvation  Ediel_sol  =         0.00000000
  ---------------------------------------------------
  free energy    TOTEN  =      -286.78662559 eV

  energy without entropy =     -286.78662559  energy(sigma->0) =     -286.78662559


--------------------------------------------------------------------------------------------------------




--------------------------------------- Iteration      1(   7)  ---------------------------------------


    POTLOK:  cpu time    0.2410: real time    0.2422
    SETDIJ:  cpu time    0.3584: real time    0.3594
     EDDAV:  cpu time    5.3117: real time    5.3305
       DOS:  cpu time    0.0004: real time    0.0004
    CHARGE:  cpu time    0.1263: real time    0.1267
    MIXING:  cpu time    0.0089: real time    0.0090
    --------------------------------------------
      LOOP:  cpu time    6.0468: real time    6.0682

 eigenvalue-minimisations  :  1280
 total energy-change (2. order) : 0.3597686E+01  (-0.1677908E+00)
 number of electron     382.0000000 magnetization      -0.3274575
 augmentation part       49.9680913 magnetization      -0.2266832

 Broyden mixing:
  rms(total) = 0.77434E+01    rms(broyden)= 0.77434E+01
  rms(prec ) = 0.78121E+01
  weight for this iteration     100.00

 eigenvalues of (default mixing * dielectric matrix)
  average eigenvalue GAMMA=   2.4012
  1.2431  3.5594

 Free energy of the ion-electron system (eV)
  ---------------------------------------------------
  alpha Z        PSCENC =       462.75907254
  Ewald energy   TEWEN  =     89307.74010853
  -Hartree energ DENC   =   -121949.30426176
  -exchange      EXHF   =         0.00000000
  -V(xc)+E(xc)   XCENC  =      1321.47986620
  PAW double counting   =     30663.14142542   -30709.22897701
  entropy T*S    EENTRO =        -0.00000000
  eigenvalues    EBANDS =     -5914.47320682
  atomic energy  EATOM  =     36534.69703334
  Solvation  Ediel_sol  =         0.00000000
  ---------------------------------------------------
  free energy    TOTEN  =      -283.18893957 eV

  energy without entropy =     -283.18893957  energy(sigma->0) =     -283.18893957


--------------------------------------------------------------------------------------------------------




--------------------------------------- Iteration      1(   8)  ---------------------------------------


    POTLOK:  cpu time    0.2407: real time    0.2425
    SETDIJ:  cpu time    0.3555: real time    0.3565
     EDDAV:  cpu time    5.3539: real time    5.3731
       DOS:  cpu time    0.0005: real time    0.0004
    CHARGE:  cpu time    0.1261: real time    0.1265
    MIXING:  cpu time    0.0089: real time    0.0090
    --------------------------------------------
      LOOP:  cpu time    6.0856: real time    6.1082

 eigenvalue-minimisations  :  1296
 total energy-change (2. order) : 0.7833364E+01  (-0.4262673E+01)
 number of electron     382.0000001 magnetization      -0.0353509
 augmentation part       53.7091662 magnetization      -1.9012365

 Broyden mixing:
  rms(total) = 0.43342E+01    rms(broyden)= 0.43341E+01
  rms(prec ) = 0.44909E+01
  weight for this iteration     100.00

 eigenvalues of (default mixing * dielectric matrix)
  average eigenvalue GAMMA=   4.6733
 11.4429  1.2535  1.3233

 Free energy of the ion-electron system (eV)
  ---------------------------------------------------
  alpha Z        PSCENC =       462.75907254
  Ewald energy   TEWEN  =     89307.74010853
  -Hartree energ DENC   =   -121794.97121550
  -exchange      EXHF   =         0.00000000
  -V(xc)+E(xc)   XCENC  =      1315.40321006
  PAW double counting   =     34451.86547412   -34514.37876896
  entropy T*S    EENTRO =        -0.00000000
  eigenvalues    EBANDS =     -6038.47048978
  atomic energy  EATOM  =     36534.69703334
  Solvation  Ediel_sol  =         0.00000000
  ---------------------------------------------------
  free energy    TOTEN  =      -275.35557566 eV

  energy without entropy =     -275.35557566  energy(sigma->0) =     -275.35557566


--------------------------------------------------------------------------------------------------------




--------------------------------------- Iteration      1(   9)  ---------------------------------------


    POTLOK:  cpu time    0.2412: real time    0.2424
    SETDIJ:  cpu time    0.3557: real time    0.3567
     EDDAV:  cpu time    5.7057: real time    5.7264
       DOS:  cpu time    0.0004: real time    0.0004
    CHARGE:  cpu time    0.1265: real time    0.1269
    MIXING:  cpu time    0.0089: real time    0.0090
    --------------------------------------------
      LOOP:  cpu time    6.4386: real time    6.4617

 eigenvalue-minimisations  :  1408
 total energy-change (2. order) :-0.1022597E+01  (-0.8890118E+00)
 number of electron     382.0000000 magnetization       0.6583656
 augmentation part       56.1457164 magnetization      -0.9268310

 Broyden mixing:
  rms(total) = 0.34411E+01    rms(broyden)= 0.34411E+01
  rms(prec ) = 0.36001E+01
  weight for this iteration     100.00

 eigenvalues of (default mixing * dielectric matrix)
  average eigenvalue GAMMA=   5.7142
 19.3462  1.5880  1.2170  0.7054

 Free energy of the ion-electron system (eV)
  ---------------------------------------------------
  alpha Z        PSCENC =       462.75907254
  Ewald energy   TEWEN  =     89307.74010853
  -Hartree energ DENC   =   -121816.74488637
  -exchange      EXHF   =         0.00000000
  -V(xc)+E(xc)   XCENC  =      1313.67687385
  PAW double counting   =     35892.79303958   -35957.45374900
  entropy T*S    EENTRO =        -0.00000000
  eigenvalues    EBANDS =     -6013.84566474
  atomic energy  EATOM  =     36534.69703334
  Solvation  Ediel_sol  =         0.00000000
  ---------------------------------------------------
  free energy    TOTEN  =      -276.37817227 eV

  energy without entropy =     -276.37817227  energy(sigma->0) =     -276.37817227


--------------------------------------------------------------------------------------------------------




--------------------------------------- Iteration      1(  10)  ---------------------------------------


    POTLOK:  cpu time    0.2411: real time    0.2422
    SETDIJ:  cpu time    0.3590: real time    0.3600
     EDDAV:  cpu time    5.9284: real time    5.9497
       DOS:  cpu time    0.0005: real time    0.0004
    CHARGE:  cpu time    0.1268: real time    0.1272
    MIXING:  cpu time    0.0095: real time    0.0095
    --------------------------------------------
      LOOP:  cpu time    6.6653: real time    6.6922

 eigenvalue-minimisations  :  1432
 total energy-change (2. order) : 0.3666933E+00  (-0.2368898E+00)
 number of electron     382.0000000 magnetization      -0.6812300
 augmentation part       57.4643745 magnetization      -1.5555871

 Broyden mixing:
  rms(total) = 0.28953E+01    rms(broyden)= 0.28953E+01
  rms(prec ) = 0.30204E+01
  weight for this iteration     100.00

 eigenvalues of (default mixing * dielectric matrix)
  average eigenvalue GAMMA=   5.3259
 21.2418  2.0866  1.0364  1.0364  1.2284

 Free energy of the ion-electron system (eV)
  ---------------------------------------------------
  alpha Z        PSCENC =       462.75907254
  Ewald energy   TEWEN  =     89307.74010853
  -Hartree energ DENC   =   -121885.13211194
  -exchange      EXHF   =         0.00000000
  -V(xc)+E(xc)   XCENC  =      1312.78988594
  PAW double counting   =     37183.39601238   -37249.01776671
  entropy T*S    EENTRO =        -0.00000000
  eigenvalues    EBANDS =     -5943.24371308
  atomic energy  EATOM  =     36534.69703334
  Solvation  Ediel_sol  =         0.00000000
  ---------------------------------------------------
  free energy    TOTEN  =      -276.01147901 eV

  energy without entropy =     -276.01147901  energy(sigma->0) =     -276.01147901


--------------------------------------------------------------------------------------------------------




--------------------------------------- Iteration      1(  11)  ---------------------------------------


    POTLOK:  cpu time    0.2411: real time    0.2452
    SETDIJ:  cpu time    0.3645: real time    0.3655
     EDDAV:  cpu time    5.8810: real time    5.9011
       DOS:  cpu time    0.0004: real time    0.0004
    CHARGE:  cpu time    0.1263: real time    0.1268
    MIXING:  cpu time    0.0093: real time    0.0094
    --------------------------------------------
      LOOP:  cpu time    6.6226: real time    6.6452

 eigenvalue-minimisations  :  1464
 total energy-change (2. order) : 0.1149189E+01  (-0.2659450E+00)
 number of electron     382.0000000 magnetization      -0.4480566
 augmentation part       57.6990285 magnetization      -0.4231847

 Broyden mixing:
  rms(total) = 0.22776E+01    rms(broyden)= 0.22775E+01
  rms(prec ) = 0.23719E+01
  weight for this iteration     100.00

 eigenvalues of (default mixing * dielectric matrix)
  average eigenvalue GAMMA=   5.8414
 27.1232  3.2353  1.3924  1.0415  1.0415  1.2146

 Free energy of the ion-electron system (eV)
  ---------------------------------------------------
  alpha Z        PSCENC =       462.75907254
  Ewald energy   TEWEN  =     89307.74010853
  -Hartree energ DENC   =   -122013.20311214
  -exchange      EXHF   =         0.00000000
  -V(xc)+E(xc)   XCENC  =      1312.83103758
  PAW double counting   =     38874.41464234   -38941.14022861
  entropy T*S    EENTRO =        -0.00000000
  eigenvalues    EBANDS =     -5812.96084398
  atomic energy  EATOM  =     36534.69703334
  Solvation  Ediel_sol  =         0.00000000
  ---------------------------------------------------
  free energy    TOTEN  =      -274.86229040 eV

  energy without entropy =     -274.86229040  energy(sigma->0) =     -274.86229040


--------------------------------------------------------------------------------------------------------




--------------------------------------- Iteration      1(  12)  ---------------------------------------


    POTLOK:  cpu time    0.2404: real time    0.2415
    SETDIJ:  cpu time    0.3647: real time    0.3657
     EDDAV:  cpu time    5.5937: real time    5.6155
       DOS:  cpu time    0.0004: real time    0.0004
    CHARGE:  cpu time    0.1266: real time    0.1271
    MIXING:  cpu time    0.0095: real time    0.0096
    --------------------------------------------
      LOOP:  cpu time    6.3354: real time    6.3598

 eigenvalue-minimisations  :  1376
 total energy-change (2. order) : 0.1737667E+01  (-0.4244013E+00)
 number of electron     382.0000000 magnetization      -0.0767465
 augmentation part       56.5588800 magnetization       0.4498507

 Broyden mixing:
  rms(total) = 0.15915E+01    rms(broyden)= 0.15914E+01
  rms(prec ) = 0.16519E+01
  weight for this iteration     100.00

 eigenvalues of (default mixing * dielectric matrix)
  average eigenvalue GAMMA=   5.8521
 29.8630  4.6708  1.8606  0.9302  1.2193  1.2106  1.2106

 Free energy of the ion-electron system (eV)
  ---------------------------------------------------
  alpha Z        PSCENC =       462.75907254
  Ewald energy   TEWEN  =     89307.74010853
  -Hartree energ DENC   =   -122174.53237046
  -exchange      EXHF   =         0.00000000
  -V(xc)+E(xc)   XCENC  =      1314.10499272
  PAW double counting   =     40860.68502648   -40928.80461760
  entropy T*S    EENTRO =        -0.00000000
  eigenvalues    EBANDS =     -5649.77386884
  atomic energy  EATOM  =     36534.69703334
  Solvation  Ediel_sol  =         0.00000000
  ---------------------------------------------------
  free energy    TOTEN  =      -273.12462329 eV

  energy without entropy =     -273.12462329  energy(sigma->0) =     -273.12462329


--------------------------------------------------------------------------------------------------------




--------------------------------------- Iteration      1(  13)  ---------------------------------------


    POTLOK:  cpu time    0.2678: real time    0.2689
    SETDIJ:  cpu time    0.3577: real time    0.3587
     EDDAV:  cpu time    5.6790: real time    5.6987
       DOS:  cpu time    0.0004: real time    0.0004
    CHARGE:  cpu time    0.1263: real time    0.1268
    MIXING:  cpu time    0.0100: real time    0.0100
    --------------------------------------------
      LOOP:  cpu time    6.4412: real time    6.4635

 eigenvalue-minimisations  :  1400
 total energy-change (2. order) : 0.2731591E+00  (-0.3689295E+00)
 number of electron     382.0000000 magnetization       0.0264641
 augmentation part       54.8100172 magnetization       0.4314454

 Broyden mixing:
  rms(total) = 0.91838E+00    rms(broyden)= 0.91837E+00
  rms(prec ) = 0.98930E+00
  weight for this iteration     100.00

 eigenvalues of (default mixing * dielectric matrix)
  average eigenvalue GAMMA=   6.7699
 36.6717  8.8924  2.6729  1.5459  1.2631  0.9312  1.0911  1.0911

 Free energy of the ion-electron system (eV)
  ---------------------------------------------------
  alpha Z        PSCENC =       462.75907254
  Ewald energy   TEWEN  =     89307.74010853
  -Hartree energ DENC   =   -122290.70528897
  -exchange      EXHF   =         0.00000000
  -V(xc)+E(xc)   XCENC  =      1315.39503748
  PAW double counting   =     42765.60354764   -42836.36570048
  entropy T*S    EENTRO =        -0.00000000
  eigenvalues    EBANDS =     -5531.97527423
  atomic energy  EATOM  =     36534.69703334
  Solvation  Ediel_sol  =         0.00000000
  ---------------------------------------------------
  free energy    TOTEN  =      -272.85146415 eV

  energy without entropy =     -272.85146415  energy(sigma->0) =     -272.85146415


--------------------------------------------------------------------------------------------------------




--------------------------------------- Iteration      1(  14)  ---------------------------------------


    POTLOK:  cpu time    0.2404: real time    0.2414
    SETDIJ:  cpu time    0.3688: real time    0.3698
     EDDAV:  cpu time    6.0269: real time    6.0508
       DOS:  cpu time    0.0004: real time    0.0004
    CHARGE:  cpu time    0.1262: real time    0.1267
    MIXING:  cpu time    0.0102: real time    0.0102
    --------------------------------------------
      LOOP:  cpu time    6.7728: real time    6.7992

 eigenvalue-minimisations  :  1480
 total energy-change (2. order) :-0.1517954E+00  (-0.1486635E+00)
 number of electron     382.0000000 magnetization      -0.0674105
 augmentation part       54.0142729 magnetization       0.0646186

 Broyden mixing:
  rms(total) = 0.60694E+00    rms(broyden)= 0.60692E+00
  rms(prec ) = 0.71166E+00
  weight for this iteration     100.00

 eigenvalues of (default mixing * dielectric matrix)
  average eigenvalue GAMMA=   6.5837
 39.2396 10.1318  2.9243  1.5965  1.3060  1.1379  1.0174  1.0174  0.8828

 Free energy of the ion-electron system (eV)
  ---------------------------------------------------
  alpha Z        PSCENC =       462.75907254
  Ewald energy   TEWEN  =     89307.74010853
  -Hartree energ DENC   =   -122311.87945579
  -exchange      EXHF   =         0.00000000
  -V(xc)+E(xc)   XCENC  =      1315.82624645
  PAW double counting   =     43973.70558697   -44046.03882932
  entropy T*S    EENTRO =        -0.00000000
  eigenvalues    EBANDS =     -5509.81302222
  atomic energy  EATOM  =     36534.69703334
  Solvation  Ediel_sol  =         0.00000000
  ---------------------------------------------------
  free energy    TOTEN  =      -273.00325951 eV

  energy without entropy =     -273.00325951  energy(sigma->0) =     -273.00325951


--------------------------------------------------------------------------------------------------------




--------------------------------------- Iteration      1(  15)  ---------------------------------------


    POTLOK:  cpu time    0.2402: real time    0.2412
    SETDIJ:  cpu time    0.3573: real time    0.3583
     EDDAV:  cpu time    5.5465: real time    5.5652
       DOS:  cpu time    0.0004: real time    0.0004
    CHARGE:  cpu time    0.1339: real time    0.1343
    MIXING:  cpu time    0.0107: real time    0.0108
    --------------------------------------------
      LOOP:  cpu time    6.2890: real time    6.3102

 eigenvalue-minimisations  :  1360
 total energy-change (2. order) : 0.3073786E+00  (-0.2910367E-01)
 number of electron     382.0000000 magnetization      -0.0105317
 augmentation part       53.9238292 magnetization       0.0067638

 Broyden mixing:
  rms(total) = 0.55220E+00    rms(broyden)= 0.55220E+00
  rms(prec ) = 0.63726E+00
  weight for this iteration     100.00

 eigenvalues of (default mixing * dielectric matrix)
  average eigenvalue GAMMA=   6.3602
 40.8224 11.1223  3.1373  1.7073  1.4998  1.2309  1.1110  1.1110  0.9303  0.9303

 Free energy of the ion-electron system (eV)
  ---------------------------------------------------
  alpha Z        PSCENC =       462.75907254
  Ewald energy   TEWEN  =     89307.74010853
  -Hartree energ DENC   =   -122285.74317723
  -exchange      EXHF   =         0.00000000
  -V(xc)+E(xc)   XCENC  =      1315.83441474
  PAW double counting   =     44307.08146131   -44379.44824496
  entropy T*S    EENTRO =        -0.00000000
  eigenvalues    EBANDS =     -5535.61654919
  atomic energy  EATOM  =     36534.69703334
  Solvation  Ediel_sol  =         0.00000000
  ---------------------------------------------------
  free energy    TOTEN  =      -272.69588092 eV

  energy without entropy =     -272.69588092  energy(sigma->0) =     -272.69588092


--------------------------------------------------------------------------------------------------------




--------------------------------------- Iteration      1(  16)  ---------------------------------------


    POTLOK:  cpu time    0.2444: real time    0.2454
    SETDIJ:  cpu time    0.3656: real time    0.3666
     EDDAV:  cpu time    5.4038: real time    5.4214
       DOS:  cpu time    0.0004: real time    0.0004
    CHARGE:  cpu time    0.1257: real time    0.1261
    MIXING:  cpu time    0.0106: real time    0.0107
    --------------------------------------------
      LOOP:  cpu time    6.1505: real time    6.1706

 eigenvalue-minimisations  :  1312
 total energy-change (2. order) : 0.5131501E+00  (-0.5566231E-01)
 number of electron     382.0000000 magnetization       0.0173787
 augmentation part       53.7608884 magnetization      -0.0574928

 Broyden mixing:
  rms(total) = 0.44103E+00    rms(broyden)= 0.44103E+00
  rms(prec ) = 0.49428E+00
  weight for this iteration     100.00

 eigenvalues of (default mixing * dielectric matrix)
  average eigenvalue GAMMA=   6.2432
 42.1514 12.2512  3.4092  2.7029  1.4734  1.2602  1.2602  1.1933  1.0315  1.0315
  0.9102

 Free energy of the ion-electron system (eV)
  ---------------------------------------------------
  alpha Z        PSCENC =       462.75907254
  Ewald energy   TEWEN  =     89307.74010853
  -Hartree energ DENC   =   -122231.93774832
  -exchange      EXHF   =         0.00000000
  -V(xc)+E(xc)   XCENC  =      1315.96521681
  PAW double counting   =     44974.76059094   -45046.52804476
  entropy T*S    EENTRO =        -0.00000000
  eigenvalues    EBANDS =     -5589.63895995
  atomic energy  EATOM  =     36534.69703334
  Solvation  Ediel_sol  =         0.00000000
  ---------------------------------------------------
  free energy    TOTEN  =      -272.18273086 eV

  energy without entropy =     -272.18273086  energy(sigma->0) =     -272.18273086


--------------------------------------------------------------------------------------------------------




--------------------------------------- Iteration      1(  17)  ---------------------------------------


    POTLOK:  cpu time    0.2418: real time    0.2429
    SETDIJ:  cpu time    0.3604: real time    0.3614
     EDDAV:  cpu time    5.3023: real time    5.3205
       DOS:  cpu time    0.0004: real time    0.0004
    CHARGE:  cpu time    0.1259: real time    0.1263
    MIXING:  cpu time    0.0106: real time    0.0106
    --------------------------------------------
      LOOP:  cpu time    6.0414: real time    6.0622

 eigenvalue-minimisations  :  1280
 total energy-change (2. order) : 0.2915603E+00  (-0.1041735E+00)
 number of electron     382.0000000 magnetization       0.0125076
 augmentation part       53.8063016 magnetization      -0.0505573

 Broyden mixing:
  rms(total) = 0.33580E+00    rms(broyden)= 0.33579E+00
  rms(prec ) = 0.36253E+00
  weight for this iteration     100.00

 eigenvalues of (default mixing * dielectric matrix)
  average eigenvalue GAMMA=   6.3199
 43.9577 14.2813  4.9633  3.2948  1.4171  1.4171  1.3794  1.1878  1.0593  1.0593
  0.9111  0.9111

 Free energy of the ion-electron system (eV)
  ---------------------------------------------------
  alpha Z        PSCENC =       462.75907254
  Ewald energy   TEWEN  =     89307.74010853
  -Hartree energ DENC   =   -122152.67108528
  -exchange      EXHF   =         0.00000000
  -V(xc)+E(xc)   XCENC  =      1315.91209300
  PAW double counting   =     45720.60724625   -45791.15543407
  entropy T*S    EENTRO =        -0.00000000
  eigenvalues    EBANDS =     -5669.78020491
  atomic energy  EATOM  =     36534.69703334
  Solvation  Ediel_sol  =         0.00000000
  ---------------------------------------------------
  free energy    TOTEN  =      -271.89117060 eV

  energy without entropy =     -271.89117060  energy(sigma->0) =     -271.89117060


--------------------------------------------------------------------------------------------------------




--------------------------------------- Iteration      1(  18)  ---------------------------------------


    POTLOK:  cpu time    0.2420: real time    0.2434
    SETDIJ:  cpu time    0.3599: real time    0.3609
     EDDAV:  cpu time    5.5567: real time    5.5765
       DOS:  cpu time    0.0004: real time    0.0004
    CHARGE:  cpu time    0.1264: real time    0.1269
    MIXING:  cpu time    0.0107: real time    0.0108
    --------------------------------------------
      LOOP:  cpu time    6.2961: real time    6.3188

 eigenvalue-minimisations  :  1360
 total energy-change (2. order) : 0.2134888E-01  (-0.2857931E-01)
 number of electron     382.0000000 magnetization       0.0202889
 augmentation part       53.9418383 magnetization       0.0399909

 Broyden mixing:
  rms(total) = 0.27919E+00    rms(broyden)= 0.27919E+00
  rms(prec ) = 0.30351E+00
  weight for this iteration     100.00

 eigenvalues of (default mixing * dielectric matrix)
  average eigenvalue GAMMA=   6.1605
 43.2394 15.9685  6.4308  3.3586  2.0085  1.4505  1.2687  1.2687  1.1096  1.1096
  0.9150  0.9790  0.9790

 Free energy of the ion-electron system (eV)
  ---------------------------------------------------
  alpha Z        PSCENC =       462.75907254
  Ewald energy   TEWEN  =     89307.74010853
  -Hartree energ DENC   =   -122142.16903183
  -exchange      EXHF   =         0.00000000
  -V(xc)+E(xc)   XCENC  =      1315.80687839
  PAW double counting   =     45729.64915009   -45799.74817148
  entropy T*S    EENTRO =        -0.00000000
  eigenvalues    EBANDS =     -5680.60486130
  atomic energy  EATOM  =     36534.69703334
  Solvation  Ediel_sol  =         0.00000000
  ---------------------------------------------------
  free energy    TOTEN  =      -271.86982172 eV

  energy without entropy =     -271.86982172  energy(sigma->0) =     -271.86982172


--------------------------------------------------------------------------------------------------------




--------------------------------------- Iteration      1(  19)  ---------------------------------------


    POTLOK:  cpu time    0.2418: real time    0.2429
    SETDIJ:  cpu time    0.3625: real time    0.3635
     EDDAV:  cpu time    5.5661: real time    5.5853
       DOS:  cpu time    0.0004: real time    0.0004
    CHARGE:  cpu time    0.1255: real time    0.1260
    MIXING:  cpu time    0.0112: real time    0.0113
    --------------------------------------------
      LOOP:  cpu time    6.3075: real time    6.3294

 eigenvalue-minimisations  :  1328
 total energy-change (2. order) : 0.6229157E-01  (-0.6477097E-02)
 number of electron     382.0000000 magnetization       0.0073450
 augmentation part       54.0419525 magnetization      -0.0005484

 Broyden mixing:
  rms(total) = 0.26077E+00    rms(broyden)= 0.26077E+00
  rms(prec ) = 0.27226E+00
  weight for this iteration     100.00

 eigenvalues of (default mixing * dielectric matrix)
  average eigenvalue GAMMA=   6.0211
 44.2106 16.9673  6.7684  3.7006  2.4824  1.6429  1.2657  1.2177  1.2177  1.0422
  1.0422  0.9224  0.9073  0.9073

 Free energy of the ion-electron system (eV)
  ---------------------------------------------------
  alpha Z        PSCENC =       462.75907254
  Ewald energy   TEWEN  =     89307.74010853
  -Hartree energ DENC   =   -122123.66921197
  -exchange      EXHF   =         0.00000000
  -V(xc)+E(xc)   XCENC  =      1315.67872435
  PAW double counting   =     45294.18929204   -45363.75013043
  entropy T*S    EENTRO =        -0.00000000
  eigenvalues    EBANDS =     -5699.45241855
  atomic energy  EATOM  =     36534.69703334
  Solvation  Ediel_sol  =         0.00000000
  ---------------------------------------------------
  free energy    TOTEN  =      -271.80753015 eV

  energy without entropy =     -271.80753015  energy(sigma->0) =     -271.80753015


--------------------------------------------------------------------------------------------------------




--------------------------------------- Iteration      1(  20)  ---------------------------------------


    POTLOK:  cpu time    0.2420: real time    0.2431
    SETDIJ:  cpu time    0.3663: real time    0.3673
     EDDAV:  cpu time    5.6066: real time    5.6262
       DOS:  cpu time    0.0004: real time    0.0004
    CHARGE:  cpu time    0.1256: real time    0.1261
    MIXING:  cpu time    0.0112: real time    0.0112
    --------------------------------------------
      LOOP:  cpu time    6.3522: real time    6.3743

 eigenvalue-minimisations  :  1376
 total energy-change (2. order) : 0.3430900E-01  (-0.5313335E-02)
 number of electron     382.0000000 magnetization       0.0331646
 augmentation part       54.1155854 magnetization       0.0943000

 Broyden mixing:
  rms(total) = 0.21029E+00    rms(broyden)= 0.21029E+00
  rms(prec ) = 0.21483E+00
  weight for this iteration     100.00

 eigenvalues of (default mixing * dielectric matrix)
  average eigenvalue GAMMA=   5.9754
 44.9741 18.9183  7.5188  3.8951  2.6433  1.6074  1.6074  1.2927  1.2339  1.2339
  0.9131  0.9583  0.9583  0.9380  0.9380

 Free energy of the ion-electron system (eV)
  ---------------------------------------------------
  alpha Z        PSCENC =       462.75907254
  Ewald energy   TEWEN  =     89307.74010853
  -Hartree energ DENC   =   -122116.87651007
  -exchange      EXHF   =         0.00000000
  -V(xc)+E(xc)   XCENC  =      1315.64305742
  PAW double counting   =     45463.33609630   -45532.31038741
  entropy T*S    EENTRO =        -0.00000000
  eigenvalues    EBANDS =     -5706.76169179
  atomic energy  EATOM  =     36534.69703334
  Solvation  Ediel_sol  =         0.00000000
  ---------------------------------------------------
  free energy    TOTEN  =      -271.77322115 eV

  energy without entropy =     -271.77322115  energy(sigma->0) =     -271.77322115


--------------------------------------------------------------------------------------------------------




--------------------------------------- Iteration      1(  21)  ---------------------------------------


    POTLOK:  cpu time    0.2421: real time    0.2431
    SETDIJ:  cpu time    0.3645: real time    0.3655
     EDDAV:  cpu time    5.0541: real time    5.0740
       DOS:  cpu time    0.0003: real time    0.0003
    CHARGE:  cpu time    0.1275: real time    0.1280
    MIXING:  cpu time    0.0114: real time    0.0115
    --------------------------------------------
      LOOP:  cpu time    5.7999: real time    5.8223

 eigenvalue-minimisations  :  1200
 total energy-change (2. order) :-0.6889891E-02  (-0.1303493E-01)
 number of electron     382.0000000 magnetization      -0.0050819
 augmentation part       54.0863731 magnetization       0.0580954

 Broyden mixing:
  rms(total) = 0.16695E+00    rms(broyden)= 0.16695E+00
  rms(prec ) = 0.17319E+00
  weight for this iteration     100.00

 eigenvalues of (default mixing * dielectric matrix)
  average eigenvalue GAMMA=   6.0375
 44.6707 20.2692  8.9717  5.7783  3.4883  2.2235  1.5884  1.3360  1.3360  1.2356
  1.0667  1.0667  0.9449  0.9449  0.8822  0.7968

 Free energy of the ion-electron system (eV)
  ---------------------------------------------------
  alpha Z        PSCENC =       462.75907254
  Ewald energy   TEWEN  =     89307.74010853
  -Hartree energ DENC   =   -122098.92819721
  -exchange      EXHF   =         0.00000000
  -V(xc)+E(xc)   XCENC  =      1315.73382513
  PAW double counting   =     45742.50532112   -45810.39485070
  entropy T*S    EENTRO =        -0.00000000
  eigenvalues    EBANDS =     -5725.89242379
  atomic energy  EATOM  =     36534.69703334
  Solvation  Ediel_sol  =         0.00000000
  ---------------------------------------------------
  free energy    TOTEN  =      -271.78011104 eV

  energy without entropy =     -271.78011104  energy(sigma->0) =     -271.78011104


--------------------------------------------------------------------------------------------------------




--------------------------------------- Iteration      1(  22)  ---------------------------------------


    POTLOK:  cpu time    0.2401: real time    0.2427
    SETDIJ:  cpu time    0.3626: real time    0.3636
     EDDAV:  cpu time    5.6707: real time    5.6903
       DOS:  cpu time    0.0004: real time    0.0004
    CHARGE:  cpu time    0.1273: real time    0.1278
    MIXING:  cpu time    0.0119: real time    0.0120
    --------------------------------------------
      LOOP:  cpu time    6.4130: real time    6.4367

 eigenvalue-minimisations  :  1392
 total energy-change (2. order) : 0.8738156E-02  (-0.4708421E-02)
 number of electron     382.0000000 magnetization       0.0110639
 augmentation part       54.1364029 magnetization      -0.0226710

 Broyden mixing:
  rms(total) = 0.13146E+00    rms(broyden)= 0.13145E+00
  rms(prec ) = 0.13719E+00
  weight for this iteration     100.00

 eigenvalues of (default mixing * dielectric matrix)
  average eigenvalue GAMMA=   5.9387
 44.0270 20.8312 10.9802  6.6543  3.6221  2.4587  1.5607  1.5607  1.2203  1.2203
  1.2516  0.9794  0.9794  0.9091  0.9091  0.8967  0.8967

 Free energy of the ion-electron system (eV)
  ---------------------------------------------------
  alpha Z        PSCENC =       462.75907254
  Ewald energy   TEWEN  =     89307.74010853
  -Hartree energ DENC   =   -122103.10752784
  -exchange      EXHF   =         0.00000000
  -V(xc)+E(xc)   XCENC  =      1315.74554434
  PAW double counting   =     45705.65388003   -45773.42127092
  entropy T*S    EENTRO =        -0.00000000
  eigenvalues    EBANDS =     -5721.83821290
  atomic energy  EATOM  =     36534.69703334
  Solvation  Ediel_sol  =         0.00000000
  ---------------------------------------------------
  free energy    TOTEN  =      -271.77137289 eV

  energy without entropy =     -271.77137289  energy(sigma->0) =     -271.77137289


--------------------------------------------------------------------------------------------------------




--------------------------------------- Iteration      1(  23)  ---------------------------------------


    POTLOK:  cpu time    0.2418: real time    0.2428
    SETDIJ:  cpu time    0.3634: real time    0.3643
     EDDAV:  cpu time    5.5554: real time    5.5759
       DOS:  cpu time    0.0004: real time    0.0004
    CHARGE:  cpu time    0.1266: real time    0.1271
    MIXING:  cpu time    0.0120: real time    0.0120
    --------------------------------------------
      LOOP:  cpu time    6.2995: real time    6.3225

 eigenvalue-minimisations  :  1360
 total energy-change (2. order) : 0.6101891E-02  (-0.1720490E-02)
 number of electron     382.0000000 magnetization       0.0435428
 augmentation part       54.1922296 magnetization      -0.0197042

 Broyden mixing:
  rms(total) = 0.11056E+00    rms(broyden)= 0.11056E+00
  rms(prec ) = 0.11463E+00
  weight for this iteration     100.00

 eigenvalues of (default mixing * dielectric matrix)
  average eigenvalue GAMMA=   5.8313
 43.9706 21.2309 12.8356  7.1693  3.6637  2.6634  1.5134  1.5134  1.3532  1.3532
  1.2241  1.0214  1.0214  0.9289  0.9289  0.9041  0.9041  0.7638

 Free energy of the ion-electron system (eV)
  ---------------------------------------------------
  alpha Z        PSCENC =       462.75907254
  Ewald energy   TEWEN  =     89307.74010853
  -Hartree energ DENC   =   -122106.12544680
  -exchange      EXHF   =         0.00000000
  -V(xc)+E(xc)   XCENC  =      1315.74576011
  PAW double counting   =     45625.28046939   -45693.00001666
  entropy T*S    EENTRO =        -0.00000000
  eigenvalues    EBANDS =     -5718.86225144
  atomic energy  EATOM  =     36534.69703334
  Solvation  Ediel_sol  =         0.00000000
  ---------------------------------------------------
  free energy    TOTEN  =      -271.76527099 eV

  energy without entropy =     -271.76527099  energy(sigma->0) =     -271.76527099


--------------------------------------------------------------------------------------------------------




--------------------------------------- Iteration      1(  24)  ---------------------------------------


    POTLOK:  cpu time    0.2416: real time    0.2427
    SETDIJ:  cpu time    0.3591: real time    0.3601
     EDDAV:  cpu time    5.7585: real time    5.7783
       DOS:  cpu time    0.0004: real time    0.0004
    CHARGE:  cpu time    0.1265: real time    0.1269
    MIXING:  cpu time    0.0123: real time    0.0123
    --------------------------------------------
      LOOP:  cpu time    6.4985: real time    6.5208

 eigenvalue-minimisations  :  1368
 total energy-change (2. order) : 0.3036342E-02  (-0.6305721E-03)
 number of electron     382.0000000 magnetization       0.0429687
 augmentation part       54.2108809 magnetization      -0.0297269

 Broyden mixing:
  rms(total) = 0.94701E-01    rms(broyden)= 0.94701E-01
  rms(prec ) = 0.97488E-01
  weight for this iteration     100.00

 eigenvalues of (default mixing * dielectric matrix)
  average eigenvalue GAMMA=   5.8146
 44.5579 22.4944 13.9879  7.4471  3.7856  2.7550  1.7334  1.6395  1.6395  1.4617
  1.2096  1.1309  1.1309  0.9607  0.9607  0.9372  0.9372  0.8923  0.8159

 Free energy of the ion-electron system (eV)
  ---------------------------------------------------
  alpha Z        PSCENC =       462.75907254
  Ewald energy   TEWEN  =     89307.74010853
  -Hartree energ DENC   =   -122109.28582597
  -exchange      EXHF   =         0.00000000
  -V(xc)+E(xc)   XCENC  =      1315.78929226
  PAW double counting   =     45612.66591302   -45680.33954621
  entropy T*S    EENTRO =        -0.00000000
  eigenvalues    EBANDS =     -5715.78828216
  atomic energy  EATOM  =     36534.69703334
  Solvation  Ediel_sol  =         0.00000000
  ---------------------------------------------------
  free energy    TOTEN  =      -271.76223465 eV

  energy without entropy =     -271.76223465  energy(sigma->0) =     -271.76223465


--------------------------------------------------------------------------------------------------------




--------------------------------------- Iteration      1(  25)  ---------------------------------------


    POTLOK:  cpu time    0.2418: real time    0.2428
    SETDIJ:  cpu time    0.3602: real time    0.3612
     EDDAV:  cpu time    5.7842: real time    5.8044
       DOS:  cpu time    0.0004: real time    0.0004
    CHARGE:  cpu time    0.1279: real time    0.1284
    MIXING:  cpu time    0.0130: real time    0.0130
    --------------------------------------------
      LOOP:  cpu time    6.5274: real time    6.5501

 eigenvalue-minimisations  :  1424
 total energy-change (2. order) :-0.1958938E-02  (-0.1397428E-02)
 number of electron     382.0000000 magnetization       0.0136132
 augmentation part       54.1903034 magnetization      -0.0019955

 Broyden mixing:
  rms(total) = 0.69886E-01    rms(broyden)= 0.69878E-01
  rms(prec ) = 0.72497E-01
  weight for this iteration     100.00

 eigenvalues of (default mixing * dielectric matrix)
  average eigenvalue GAMMA=   6.0872
 45.3050 27.5250 15.4193  7.7045  5.2982  2.9166  2.9166  1.6592  1.6592  1.3576
  1.1656  1.1656  0.9328  0.9328  1.0546  1.0546  1.0373  0.9210  0.9210  0.7981

 Free energy of the ion-electron system (eV)
  ---------------------------------------------------
  alpha Z        PSCENC =       462.75907254
  Ewald energy   TEWEN  =     89307.74010853
  -Hartree energ DENC   =   -122115.45854808
  -exchange      EXHF   =         0.00000000
  -V(xc)+E(xc)   XCENC  =      1315.92752521
  PAW double counting   =     45739.61499759   -45807.19792141
  entropy T*S    EENTRO =        -0.00000000
  eigenvalues    EBANDS =     -5709.84646131
  atomic energy  EATOM  =     36534.69703334
  Solvation  Ediel_sol  =         0.00000000
  ---------------------------------------------------
  free energy    TOTEN  =      -271.76419359 eV

  energy without entropy =     -271.76419359  energy(sigma->0) =     -271.76419359


[...]
   17        0.000   0.000   0.000   0.000
   18        0.000   0.000   0.000   0.000
   19        0.000   0.000   0.000   0.000
   20        0.000   0.000   0.000   0.000
   21        0.000   0.000   0.000   0.000
   22        0.000   0.000   0.000   0.000
   23        0.000   0.000   0.000   0.000
   24        0.000   0.000   0.000   0.000
   25       -0.000  -0.000  -0.000  -0.000
   26       -0.000   0.000  -0.000  -0.000
   27       -0.000  -0.000  -0.000  -0.000
   28       -0.000  -0.000  -0.000  -0.000
   29       -0.000  -0.000  -0.000  -0.000
   30       -0.000  -0.000  -0.000  -0.000
   31       -0.000  -0.000  -0.000  -0.000
   32       -0.000  -0.000  -0.000  -0.000
   33       -0.000  -0.000  -0.000  -0.000
   34       -0.000  -0.000  -0.000  -0.000
   35       -0.000  -0.000  -0.000  -0.000
   36       -0.000  -0.000  -0.000  -0.000
   37       -0.000  -0.000   0.000   0.000
   38       -0.000  -0.000   0.000   0.000
   39       -0.000  -0.000   0.000   0.000
   40       -0.000  -0.000   0.000   0.000
   41       -0.000  -0.000   0.000   0.000
   42       -0.000  -0.000   0.000   0.000
   43       -0.000  -0.000   0.000   0.000
--------------------------------------------------
tot         -0.000   0.000   0.000   0.000
 
    CHARGE:  cpu time    0.1266: real time    0.1270
    FORLOC:  cpu time    0.0308: real time    0.0309
    FORNL :  cpu time    1.9469: real time    1.9534
    STRESS:  cpu time    3.2959: real time    3.3078
    FORCOR:  cpu time    0.2611: real time    0.2621
    FORHAR:  cpu time    0.0614: real time    0.0622
    MIXING:  cpu time    0.0208: real time    0.0208
    OFIELD:  cpu time    0.0001: real time    0.0003

 ---------------------------------------------------------------------------------------------

         DFTD3 V3.0 Rev 1        
 IVDW         = 12
 DF pbe       
 parameters
 VDW_S6       =    1.0000
 VDW_S8       =    0.7875
 VDW_A1       =    0.4289
 VDW_A2       =    4.4407
 k1-k3        =   16.0000    1.3333   -4.0000
 VDW_RADIUS   =   50.2022 A
 VDW_CNRADIUS =   21.1671 A
 Edisp (eV)  -14.53067

 E6    (eV) :    -8.2227
 E8    (eV) :    -6.3080
 % E8        : 43.41
    FORVDW:  cpu time    0.1041: real time    0.1046

  FORCE on cell =-STRESS in cart. coord.  units (eV):
  Direction    XX          YY          ZZ          XY          YZ          ZX
  --------------------------------------------------------------------------------------
  Alpha Z   462.75907   462.75907   462.75907
  Ewald  108348.12782109186.70036************     1.66312    15.12145    30.98237
  Hartree116108.57740116909.18470************    -1.68431     9.04304    25.85447
  E(xc)   -1713.91049 -1713.69047 -1716.94813    -0.00228     0.00353    -0.02296
  Local  ************************232220.99998     0.57438   -23.35010   -57.32975
  n-local  1295.92023  1300.75430  1345.11195     0.19618     0.07796     0.53235
  augment  1227.68899  1230.68476  1225.73238    -0.26299    -0.37864    -0.37048
  Kinetic  5595.67542  5609.93346  5583.94516    -0.19826    -0.44191    -0.17362
  Fock        0.00000     0.00000     0.00000     0.00000     0.00000     0.00000
  vdW       -14.61347   -14.64902    -5.88369    -0.00115     0.00245    -0.00354
  -------------------------------------------------------------------------------------
  Total      -2.14379     2.55973    -8.70478     0.28469     0.07779    -0.53117
  in kB      -1.63790     1.95568    -6.65061     0.21751     0.05943    -0.40582
  external pressure =       -2.11 kB  Pullay stress =        0.00 kB


 VOLUME and BASIS-vectors are now :
 -----------------------------------------------------------------------------
  energy-cutoff  :      450.00
  volume of cell :     2097.04
      direct lattice vectors                 reciprocal lattice vectors
    11.007200000  0.000000000  0.000000000     0.090849626  0.000009197  0.000000000
    -0.000965000  9.532200000  0.000000000     0.000000000  0.104907576  0.000000000
     0.000000000  0.000000000 19.986500000     0.000000000  0.000000000  0.050033773

  length of vectors
    11.007200000  9.532200049 19.986500000     0.090849626  0.104907576  0.050033773


 FORCES acting on ions
    electron-ion (+dipol)            ewald-force                    non-local-force                 convergence-correction
 -----------------------------------------------------------------------------------------------
   -.166E+03 0.459E+02 -.747E+03   0.168E+03 -.457E+02 0.750E+03   -.175E+01 -.178E+00 -.365E+01   0.169E-02 -.108E-03 0.121E-01
   0.221E+03 0.167E+01 -.680E+03   -.222E+03 -.167E+01 0.683E+03   0.145E+01 -.588E-01 -.265E+01   -.337E-02 0.578E-03 0.107E-01
   -.146E+02 0.901E+01 0.111E+04   0.149E+02 -.903E+01 -.111E+04   0.150E-01 -.676E-01 0.446E+01   -.104E-02 -.117E-02 -.390E-02
   0.258E+02 0.255E+01 0.113E+04   -.256E+02 -.256E+01 -.114E+04   0.156E+00 -.108E+00 0.420E+01   0.534E-02 0.809E-03 -.116E-02
   0.443E+02 0.442E+02 -.571E+03   -.439E+02 -.440E+02 0.572E+03   -.226E+00 -.301E+00 -.802E+00   0.265E-02 -.168E-03 0.299E-02
   -.887E+02 -.652E+00 -.571E+03   0.889E+02 0.659E+00 0.572E+03   0.191E+00 -.154E+00 -.907E+00   -.194E-02 0.486E-03 0.375E-02
   0.777E+01 0.109E+02 0.116E+04   -.747E+01 -.109E+02 -.117E+04   -.110E+00 0.257E-01 0.441E+01   0.238E-02 -.135E-02 0.179E-02
   -.250E+02 0.314E+01 0.115E+04   0.253E+02 -.311E+01 -.116E+04   0.323E-02 -.220E+00 0.449E+01   -.304E-02 0.991E-03 0.251E-02
   -.169E+03 -.446E+02 -.741E+03   0.171E+03 0.443E+02 0.744E+03   -.155E+01 0.254E+00 -.392E+01   0.123E-02 0.758E-03 0.108E-01
   0.151E+03 -.154E+03 -.754E+03   -.151E+03 0.156E+03 0.758E+03   0.587E+00 -.143E+01 -.392E+01   -.236E-02 -.119E-02 0.101E-01
   -.107E+02 -.710E+01 0.110E+04   0.111E+02 0.712E+01 -.111E+04   -.262E+00 -.991E-01 0.465E+01   -.156E-02 0.159E-02 -.255E-02
   0.246E+02 -.145E+02 0.111E+04   -.244E+02 0.146E+02 -.111E+04   -.382E-01 0.547E-01 0.415E+01   0.338E-02 -.740E-03 -.275E-02
   0.467E+02 -.417E+02 -.572E+03   -.462E+02 0.416E+02 0.573E+03   -.359E+00 -.129E+00 -.434E+00   0.246E-02 0.111E-02 0.165E-02
   -.153E+03 -.158E+03 -.657E+03   0.154E+03 0.160E+03 0.660E+03   -.677E+00 -.120E+01 -.266E+01   -.888E-03 -.298E-03 0.550E-02
   0.698E+01 -.760E+01 0.116E+04   -.668E+01 0.761E+01 -.116E+04   -.174E-01 -.261E+00 0.418E+01   0.193E-02 0.234E-02 0.314E-02
   -.193E+02 -.891E+01 0.113E+04   0.196E+02 0.890E+01 -.114E+04   -.597E+00 -.127E+00 0.443E+01   -.557E-02 -.136E-02 0.380E-03
   -.487E+02 -.877E+00 -.827E+03   0.488E+02 0.886E+00 0.830E+03   -.890E-01 0.756E-01 -.471E+01   0.281E-02 -.545E-03 0.994E-02
   0.156E+03 0.151E+03 -.746E+03   -.156E+03 -.153E+03 0.750E+03   0.256E+00 0.154E+01 -.376E+01   -.236E-02 0.425E-03 0.109E-01
   -.168E+02 -.221E+01 0.109E+04   0.171E+02 0.223E+01 -.110E+04   0.603E-01 0.265E+00 0.424E+01   0.217E-03 -.387E-03 -.484E-02
   0.265E+02 0.110E+02 0.111E+04   -.263E+02 -.111E+02 -.111E+04   -.214E+00 0.664E-01 0.428E+01   0.270E-02 -.197E-03 -.383E-02
   0.157E+03 0.304E+01 -.655E+03   -.159E+03 -.298E+01 0.657E+03   0.140E+01 -.105E+00 -.196E+01   0.361E-02 -.534E-03 0.568E-02
   -.146E+03 0.158E+03 -.652E+03   0.147E+03 -.160E+03 0.654E+03   -.111E+01 0.107E+01 -.219E+01   -.779E-03 -.345E-03 0.692E-02
   0.109E+02 -.223E+01 0.114E+04   -.106E+02 0.224E+01 -.114E+04   -.105E+00 0.132E+00 0.436E+01   0.324E-02 -.962E-03 -.433E-03
   -.171E+02 0.517E+01 0.113E+04   0.175E+02 -.525E+01 -.114E+04   -.611E+00 0.411E+00 0.418E+01   -.549E-02 0.272E-03 -.747E-03
   0.231E+02 -.436E+00 0.503E+03   -.238E+02 0.441E+00 -.504E+03   -.198E+00 0.321E-01 0.174E+01   0.608E-02 0.267E-02 0.391E-01
   0.157E+03 0.682E+02 0.724E+03   -.157E+03 -.685E+02 -.726E+03   -.194E+00 0.887E-01 0.180E+01   0.162E-01 0.394E-02 0.147E-01
   -.111E+02 0.140E+00 0.844E+03   0.109E+02 -.716E-01 -.847E+03   -.126E+00 0.783E-01 0.220E+01   0.227E-02 0.239E-02 0.187E-01
   -.150E+03 0.541E+02 0.715E+03   0.150E+03 -.541E+02 -.717E+03   -.453E+00 0.312E+00 0.163E+01   -.185E-01 0.663E-02 0.174E-01
   0.133E+02 -.586E+02 0.423E+03   -.138E+02 0.586E+02 -.423E+03   -.135E+00 -.328E+00 0.124E+01   0.300E-02 -.343E-02 0.348E-01
   0.152E+03 -.680E+02 0.718E+03   -.153E+03 0.682E+02 -.719E+03   -.170E+00 -.464E-01 0.210E+01   0.175E-01 -.167E-02 0.134E-01
   -.159E+02 -.733E+02 0.770E+03   0.160E+02 0.735E+02 -.772E+03   0.367E-02 0.581E-01 0.199E+01   -.346E-02 -.790E-02 0.706E-02
   -.158E+03 -.665E+02 0.715E+03   0.159E+03 0.666E+02 -.716E+03   -.844E-01 -.143E-01 0.181E+01   -.183E-01 -.464E-02 0.171E-01
   0.356E+01 0.599E+02 0.439E+03   -.392E+01 -.600E+02 -.439E+03   0.144E-02 0.254E+00 0.109E+01   0.431E-02 0.316E-03 0.335E-01
   0.151E+03 0.240E+01 0.508E+03   -.151E+03 -.241E+01 -.508E+03   -.425E-01 -.161E+00 0.168E+01   0.969E-02 -.174E-02 0.236E-01
   -.939E+01 0.701E+02 0.775E+03   0.955E+01 -.702E+02 -.777E+03   -.583E-01 0.762E-01 0.177E+01   -.280E-02 0.496E-02 0.838E-02
   -.141E+03 0.120E+02 0.520E+03   0.142E+03 -.122E+02 -.520E+03   -.432E+00 -.289E+00 0.208E+01   -.181E-01 -.176E-02 0.269E-01
   0.250E+03 0.123E+03 -.186E+04   -.250E+03 -.123E+03 0.186E+04   0.203E+00 0.181E+00 -.238E+01   -.106E-01 -.298E-02 0.188E-01
   0.682E+01 -.618E+01 -.187E+04   -.694E+01 0.637E+01 0.187E+04   -.876E-01 -.517E-01 -.360E+01   0.326E-02 0.616E-04 0.858E-02
   -.257E+03 0.122E+03 -.186E+04   0.257E+03 -.121E+03 0.187E+04   -.430E+00 -.577E-01 -.233E+01   0.655E-02 -.191E-02 0.165E-01
   0.240E+03 -.122E+03 -.186E+04   -.240E+03 0.122E+03 0.187E+04   0.931E-01 -.206E+00 -.226E+01   -.104E-01 0.322E-02 0.182E-01
   0.428E+01 -.127E+03 -.187E+04   -.431E+01 0.127E+03 0.187E+04   -.165E+00 -.282E+00 -.297E+01   -.428E-03 0.373E-02 0.142E-01
   -.253E+03 -.123E+03 -.186E+04   0.253E+03 0.123E+03 0.186E+04   -.432E+00 -.125E+00 -.239E+01   0.807E-02 0.174E-02 0.147E-01
   -.224E+01 0.130E+03 -.186E+04   0.244E+01 -.130E+03 0.186E+04   -.243E+00 0.245E+00 -.282E+01   0.797E-03 -.414E-02 0.148E-01
 -----------------------------------------------------------------------------------------------
   0.655E+01 0.786E+00 -.233E+02   0.533E-13 0.171E-12 -.159E-11   -.655E+01 -.780E+00 0.229E+02   0.338E-03 -.520E-03 0.439E+00
 
 
 POSITION                                       TOTAL-FORCE (eV/Angst)
 -----------------------------------------------------------------------------------
      0.95344      1.54276     11.42631         0.633186      0.076879     -0.545512
      3.68407      3.15097     11.45143        -0.278830     -0.062190     -0.305011
      0.93990      1.56330      8.24112         0.300366     -0.094887      0.004286
      3.69221      3.15890      8.23690         0.361934     -0.120156     -0.020289
      6.44987      1.56721     11.42298         0.254985     -0.095328      0.028341
      9.20708      3.15806     11.43540         0.393097     -0.147871     -0.086994
      6.44841      1.55832      8.23918         0.192765      0.020271      0.169785
      9.19045      3.16097      8.24953         0.258784     -0.189972      0.183158
      0.93906      4.73491     11.43260         0.775961     -0.010997     -0.719049
      3.68692      6.31130     11.43743         0.028439      0.792633     -0.623025
      0.94899      4.74072      8.24355         0.097588     -0.081692      0.117350
      3.70498      6.30980      8.25273         0.138012      0.114940     -0.214303
      6.44857      4.74734     11.41405         0.133776     -0.255303      0.267569
      9.19055      6.31942     11.44943         0.654020      0.881906     -0.507126
      6.43796      4.75151      8.25895         0.287857     -0.252238     -0.121911
      9.22436      6.33383      8.24412        -0.288847     -0.139760      0.111325
      0.95875      7.90395     11.40814        -0.019358      0.083914     -1.006515
      3.70946      9.50988     11.41443        -0.215970     -0.665166     -0.483094
      0.93562      7.88234      8.24469         0.366791      0.284963     -0.300645
      3.71673      9.51560      8.24919         0.000574      0.000462     -0.147155
      6.44879      7.91328     11.41908        -0.381958     -0.047938      0.041272
      9.21236      9.52342     11.41936         0.277655     -0.930868     -0.170853
      6.43724      7.89954      8.24948         0.199341      0.143564      0.005721
      9.21818      9.49026      8.25643        -0.236463      0.341843     -0.134117
      1.89133      3.14254      9.78252        -0.942300      0.039342      1.014659
      4.63033      1.57587      9.79202        -0.529755     -0.197294     -0.116176
      7.36892      3.14327      9.79742        -0.325767      0.148265     -0.344380
     10.13759      1.55152      9.79809        -0.311282      0.377682     -0.180194
      1.88307      6.32819      9.78612        -0.639856     -0.272643      1.213355
      4.62355      4.72817      9.78685        -0.583767      0.228120      0.294735
      7.35876      6.32176      9.79241         0.143231      0.260921     -0.107833
     10.11256      4.74031      9.79607         0.156332      0.071409     -0.004257
      1.87292      9.48986      9.77893        -0.352321      0.130002      1.026685
      4.61008      7.91732      9.78569        -0.088215     -0.174708      0.983187
      7.35580      9.50029      9.79581         0.093465     -0.032587     -0.381748
     10.12392      7.92817      9.76560         0.073203     -0.490323      1.629671
      4.62068      1.55273     12.41034         0.160697      0.231834     -0.011028
      7.39174      3.13728     12.44119        -0.206213      0.130415      0.073675
     10.10809      1.55851     12.43267        -0.253737      0.260484     -0.202590
      4.59903      4.73841     12.42629         0.329363     -0.189678     -0.121454
      7.37077      6.31850     12.44069        -0.194023     -0.060459     -0.118822
     10.12488      4.74826     12.43484        -0.418503     -0.227643     -0.138716
      7.36766      9.51123     12.41738        -0.044255      0.119855     -0.051981
 -----------------------------------------------------------------------------------
    total drift:                               -0.002272      0.005233      0.008672


--------------------------------------------------------------------------------------------------------



  FREE ENERGIE OF THE ION-ELECTRON SYSTEM (eV)
  ---------------------------------------------------
  free  energy   TOTEN  =      -286.29341056 eV

  energy  without entropy=     -286.29341056  energy(sigma->0) =     -286.29341056
 


--------------------------------------------------------------------------------------------------------


    POTLOK:  cpu time    0.5952: real time    0.5972


--------------------------------------------------------------------------------------------------------


     LOOP+:  cpu time  272.7510: real time  273.7449
    4ORBIT:  cpu time    0.0000: real time    0.0000
 


 total charge     
 
# of ion       s       p       d       tot
------------------------------------------
    1        1.343   2.350   0.000   3.694
    2        1.323   2.379   0.000   3.702
    3        1.362   2.343   0.000   3.705
    4        1.362   2.347   0.000   3.709
    5        1.308   2.399   0.000   3.706
    6        1.308   2.392   0.000   3.700
    7        1.362   2.342   0.000   3.704
    8        1.362   2.341   0.000   3.703
    9        1.343   2.350   0.000   3.693
   10        1.343   2.355   0.000   3.698
   11        1.362   2.340   0.000   3.702
   12        1.362   2.351   0.000   3.713
   13        1.309   2.393   0.000   3.702
   14        1.327   2.373   0.000   3.700
   15        1.362   2.349   0.000   3.711
   16        1.362   2.344   0.000   3.705
   17        1.363   2.323   0.000   3.687
   18        1.343   2.358   0.000   3.701
   19        1.362   2.350   0.000   3.712
   20        1.361   2.349   0.000   3.710
   21        1.326   2.378   0.000   3.703
   22        1.326   2.380   0.000   3.706
   23        1.362   2.344   0.000   3.706
   24        1.361   2.350   0.000   3.711
   25        2.276   6.206   3.931  12.413
   26        2.276   6.210   3.982  12.469
   27        2.272   6.207   3.998  12.477
   28        2.275   6.210   3.979  12.464
   29        2.281   6.212   3.932  12.426
   30        2.278   6.213   3.989  12.479
   31        2.275   6.209   3.990  12.475
   32        2.275   6.209   3.974  12.458
   33        2.277   6.207   3.920  12.404
   34        2.278   6.207   3.940  12.425
   35        2.273   6.206   3.983  12.462
   36        2.280   6.210   3.948  12.438
   37        0.399   0.494   8.940   9.832
   38        0.388   0.479   8.913   9.780
   39        0.389   0.481   8.933   9.803
   40        0.394   0.485   8.935   9.815
   41        0.392   0.483   8.926   9.801
   42        0.394   0.489   8.935   9.818
   43        0.392   0.482   8.924   9.798
--------------------------------------------------
tot         62.368 134.479 110.073 306.920
 


 magnetization (x)
 
# of ion       s       p       d       tot
------------------------------------------
    1        0.000   0.000   0.000   0.000
    2        0.000   0.000   0.000   0.000
    3        0.000   0.000   0.000   0.000
    4        0.000   0.000   0.000   0.000
    5        0.000   0.000   0.000   0.000
    6        0.000   0.000   0.000   0.000
    7        0.000   0.000   0.000   0.000
    8        0.000   0.000   0.000   0.000
    9        0.000   0.000   0.000   0.000
   10        0.000   0.000   0.000   0.000
   11        0.000   0.000   0.000   0.000
   12        0.000   0.000   0.000   0.000
   13        0.000   0.000   0.000   0.000
   14        0.000   0.000   0.000   0.000
   15        0.000   0.000   0.000   0.000
   16        0.000   0.000   0.000   0.000
   17        0.000   0.000   0.000   0.000
   18        0.000   0.000   0.000   0.000
   19        0.000   0.000   0.000   0.000
   20        0.000   0.000   0.000   0.000
   21        0.000   0.000   0.000   0.000
   22        0.000   0.000   0.000   0.000
   23        0.000   0.000   0.000   0.000
   24        0.000   0.000   0.000   0.000
   25       -0.000  -0.000  -0.000  -0.000
   26       -0.000   0.000  -0.000  -0.000
   27       -0.000  -0.000  -0.000  -0.000
   28       -0.000  -0.000  -0.000  -0.000
   29       -0.000  -0.000  -0.000  -0.000
   30       -0.000  -0.000  -0.000  -0.000
   31       -0.000  -0.000  -0.000  -0.000
   32       -0.000  -0.000  -0.000  -0.000
   33       -0.000  -0.000  -0.000  -0.000
   34       -0.000  -0.000  -0.000  -0.000
   35       -0.000  -0.000  -0.000  -0.000
   36       -0.000  -0.000  -0.000  -0.000
   37       -0.000  -0.000   0.000   0.000
   38       -0.000  -0.000   0.000   0.000
   39       -0.000  -0.000   0.000   0.000
   40       -0.000  -0.000   0.000   0.000
   41       -0.000  -0.000   0.000   0.000
   42       -0.000  -0.000   0.000   0.000
   43       -0.000  -0.000   0.000   0.000
--------------------------------------------------
tot         -0.000   0.000   0.000   0.000
 

 total amount of memory used by VASP MPI-rank0    68622. kBytes
=======================================================================

   base      :      30000. kBytes
   nonl-proj :       4256. kBytes
   fftplans  :       7095. kBytes
   grid      :      19382. kBytes
   one-center:        124. kBytes
   wavefun   :       7765. kBytes
 
  
  
 General timing and accounting informations for this job:
 ========================================================
  
                  Total CPU time used (sec):      275.844
                            User time (sec):      274.215
                          System time (sec):        1.629
                         Elapsed time (sec):      276.969
  
                   Maximum memory used (kb):      127680.
                   Average memory used (kb):           0.
  
                          Minor page faults:       165405
                          Major page faults:            0
                 Voluntary context switches:         1050
