PROCAR lm decomposed
# of k-points:    1         # of bands:  252         # of ions:   43

 k-point     1 :    0.00000000 0.00000000 0.00000000     weight = 1.00000000

band     1 # energy  -62.02568558 # occ.  1.00000000
 
ion      s     py     pz     px    dxy    dyz    dz2    dxz  x2-y2    tot
    1  0.000  0.000  0.000  0.000  0.000  0.000  0.000  0.000  0.000  0.000
    2  0.000  0.000  0.000  0.000  0.000  0.000  0.000  0.000  0.000  0.000
    3  0.000  0.000  0.000  0.000  0.000  0.000  0.000  0.000  0.000  0.000
    4  0.000  0.000  0.000  0.000  0.000  0.000  0.000  0.000  0.000  0.000
    5  0.000  0.000  0.000  0.000  0.000  0.000  0.000  0.000  0.000  0.000
    6  0.000  0.000  0.000  0.000  0.000  0.000  0.000  0.000  0.000  0.000
    7  0.000  0.000  0.000  0.000  0.000  0.000  0.000  0.000  0.000  0.000
    8  0.000  0.000  0.000  0.000  0.000  0.000  0.000  0.000  0.000  0.000
    9  0.000  0.000  0.000  0.000  0.000  0.000  0.000  0.000  0.000  0.000
   10  0.000  0.000  0.000  0.000  0.000  0.000  0.000  0.000  0.000  0.000
   11  0.000  0.000  0.000  0.000  0.000  0.000  0.000  0.000  0.000  0.000
   12  0.000  0.000  0.000  0.000  0.000  0.000  0.000  0.000  0.000  0.000
   13  0.000  0.000  0.000  0.000  0.000  0.000  0.000  0.000  0.000  0.000
   14  0.000  0.000  0.000  0.000  0.000  0.000  0.000  0.000  0.000  0.000
   15  0.000  0.000  0.000  0.000  0.000  0.000  0.000  0.000  0.000  0.000
   16  0.000  0.000  0.000  0.000  0.000  0.000  0.000  0.000  0.000  0.000
   17  0.000  0.000  0.000  0.000  0.000  0.000  0.000  0.000  0.000  0.000
   18  0.000  0.000  0.000  0.000  0.000  0.000  0.000  0.000  0.000  0.000
   19  0.000  0.000  0.000  0.000  0.000  0.000  0.000  0.000  0.000  0.000
   20  0.000  0.000  0.000  0.000  0.000  0.000  0.000  0.000  0.000  0.000
   21  0.000  0.000  0.000  0.000  0.000  0.000  0.000  0.000  0.000  0.000
   22  0.000  0.000  0.000  0.000  0.000  0.000  0.000  0.000  0.000  0.000
   23  0.000  0.000  0.000  0.000  0.000  0.000  0.000  0.000  0.000  0.000
   24  0.000  0.000  0.000  0.000  0.000  0.000  0.000  0.000  0.000  0.000
   25  0.048  0.000  0.000  0.000  0.000  0.000  0.000  0.000  0.000  0.048
   26  0.004  0.000  0.000  0.000  0.000  0.000  0.000  0.000  0.000  0.004
   27  0.000  0.000  0.000  0.000  0.000  0.000  0.000  0.000  0.000  0.000
   28  0.003  0.000  0.000  0.000  0.000  0.000  0.000  0.000  0.000  0.003
   29  0.326  0.000  0.000  0.000  0.000  0.000  0.000  0.000  0.000  0.326
   30  0.003  0.000  0.000  0.000  0.000  0.000  0.000  0.000  0.000  0.003
   31  0.000  0.000  0.000  0.000  0.000  0.000  0.000  0.000  0.000  0.000
   32  0.002  0.000  0.000  0.000  0.000  0.000  0.000  0.000  0.000  0.002
   33  0.565  0.000  0.000  0.000  0.000  0.000  0.000  0.000  0.000  0.565
   34  0.038  0.000  0.000  0.000  0.000  0.000  0.000  0.000  0.000  0.038
   35  0.000  0.000  0.000  0.000  0.000  0.000  0.000  0.000  0.000  0.000
   36  0.007  0.000  0.000  0.000  0.000  0.000  0.000  0.000  0.000  0.007
   37  0.000  0.000  0.000  0.000  0.000  0.000  0.000  0.000  0.000  0.000
   38  0.000  0.000  0.000  0.000  0.000  0.000  0.000  0.000  0.000  0.000
   39  0.000  0.000  0.000  0.000  0.000  0.000  0.000  0.000  0.000  0.000
   40  0.000  0.000  0.000  0.000  0.000  0.000  0.000  0.000  0.000  0.000
   41  0.000  0.000  0.000  0.000  0.000  0.000  0.000  0.000  0.000  0.000
   42  0.000  0.000  0.000  0.000  0.000  0.000  0.000  0.000  0.000  0.000
   43  0.000  0.000  0.000  0.000  0.000  0.000  0.000  0.000  0.000  0.000
tot    0.996  0.000  0.000  0.000  0.000  0.000  0.000  0.000  0.000  0.996
 
band     2 # energy  -62.01125560 # occ.  1.00000000
 
ion      s     py     pz     px    dxy    dyz    dz2    dxz  x2-y2    tot
    1  0.000  0.000  0.000  0.000  0.000  0.000  0.000  0.000  0.000  0.000
    2  0.000  0.000  0.000  0.000  0.000  0.000  0.000  0.000  0.000  0.000
    3  0.000  0.000  0.000  0.000  0.000  0.000  0.000  0.000  0.000  0.000
    4  0.000  0.000  0.000  0.000  0.000  0.000  0.000  0.000  0.000  0.000
    5  0.000  0.000  0.000  0.000  0.000  0.000  0.000  0.000  0.000  0.000
    6  0.000  0.000  0.000  0.000  0.000  0.000  0.000  0.000  0.000  0.000
    7  0.000  0.000  0.000  0.000  0.000  0.000  0.000  0.000  0.000  0.000
    8  0.000  0.000  0.000  0.000  0.000  0.000  0.000  0.000  0.000  0.000
    9  0.000  0.000  0.000  0.000  0.000  0.000  0.000  0.000  0.000  0.000
   10  0.000  0.000  0.000  0.000  0.000  0.000  0.000  0.000  0.000  0.000
   11  0.000  0.000  0.000  0.000  0.000  0.000  0.000  0.000  0.000  0.000
   12  0.000  0.000  0.000  0.000  0.000  0.000  0.000  0.000  0.000  0.000
   13  0.000  0.000  0.000  0.000  0.000  0.000  0.000  0.000  0.000  0.000
   14  0.000  0.000  0.000  0.000  0.000  0.000  0.000  0.000  0.000  0.000
   15  0.000  0.000  0.000  0.000  0.000  0.000  0.000  0.000  0.000  0.000
   16  0.000  0.000  0.000  0.000  0.000  0.000  0.000  0.000  0.000  0.000
   17  0.000  0.000  0.000  0.000  0.000  0.000  0.000  0.000  0.000  0.000
   18  0.000  0.000  0.000  0.000  0.000  0.000  0.000  0.000  0.000  0.000
   19  0.000  0.000  0.000  0.000  0.000  0.000  0.000  0.000  0.000  0.000
   20  0.000  0.000  0.000  0.000  0.000  0.000  0.000  0.000  0.000  0.000
   21  0.000  0.000  0.000  0.000  0.000  0.000  0.000  0.000  0.000  0.000
   22  0.000  0.000  0.000  0.000  0.000  0.000  0.000  0.000  0.000  0.000
   23  0.000  0.000  0.000  0.000  0.000  0.000  0.000  0.000  0.000  0.000
   24  0.000  0.000  0.000  0.000  0.000  0.000  0.000  0.000  0.000  0.000
   25  0.003  0.000  0.000  0.000  0.000  0.000  0.000  0.000  0.000  0.003
   26  0.001  0.000  0.000  0.000  0.000  0.000  0.000  0.000  0.000  0.001
   27  0.000  0.000  0.000  0.000  0.000  0.000  0.000  0.000  0.000  0.000
   28  0.001  0.000  0.000  0.000  0.000  0.000  0.000  0.000  0.000  0.001
   29  0.603  0.000  0.000  0.000  0.000  0.000  0.000  0.000  0.000  0.603
   30  0.003  0.000  0.000  0.000  0.000  0.000  0.000  0.000  0.000  0.003
   31  0.000  0.000  0.000  0.000  0.000  0.000  0.000  0.000  0.000  0.000
   32  0.002  0.000  0.000  0.000  0.000  0.000  0.000  0.000  0.000  0.002
   33  0.383  0.000  0.000  0.000  0.000  0.000  0.000  0.000  0.000  0.383
   34  0.002  0.000  0.000  0.000  0.000  0.000  0.000  0.000  0.000  0.002
   35  0.000  0.000  0.000  0.000  0.000  0.000  0.000  0.000  0.000  0.000
   36  0.000  0.000  0.000  0.000  0.000  0.000  0.000  0.000  0.000  0.000
   37  0.000  0.000  0.000  0.000  0.000  0.000  0.000  0.000  0.000  0.000
   38  0.000  0.000  0.000  0.000  0.000  0.000  0.000  0.000  0.000  0.000
   39  0.000  0.000  0.000  0.000  0.000  0.000  0.000  0.000  0.000  0.000
   40  0.000  0.000  0.000  0.000  0.000  0.000  0.000  0.000  0.000  0.000
   41  0.000  0.000  0.000  0.000  0.000  0.000  0.000  0.000  0.000  0.000
   42  0.000  0.000  0.000  0.000  0.000  0.000  0.000  0.000  0.000  0.000
   43  0.000  0.000  0.000  0.000  0.000  0.000  0.000  0.000  0.000  0.000
tot    0.996  0.000  0.000  0.000  0.000  0.000  0.000  0.000  0.000  0.996
 
band     3 # energy  -61.99341510 # occ.  1.00000000
 
ion      s     py     pz     px    dxy    dyz    dz2    dxz  x2-y2    tot
    1  0.000  0.000  0.000  0.000  0.000  0.000  0.000  0.000  0.000  0.000
    2  0.000  0.000  0.000  0.000  0.000  0.000  0.000  0.000  0.000  0.000
    3  0.000  0.000  0.000  0.000  0.000  0.000  0.000  0.000  0.000  0.000
    4  0.000  0.000  0.000  0.000  0.000  0.000  0.000  0.000  0.000  0.000
    5  0.000  0.000  0.000  0.000  0.000  0.000  0.000  0.000  0.000  0.000
    6  0.000  0.000  0.000  0.000  0.000  0.000  0.000  0.000  0.000  0.000
    7  0.000  0.000  0.000  0.000  0.000  0.000  0.000  0.000  0.000  0.000
    8  0.000  0.000  0.000  0.000  0.000  0.000  0.000  0.000  0.000  0.000
    9  0.000  0.000  0.000  0.000  0.000  0.000  0.000  0.000  0.000  0.000
   10  0.000  0.000  0.000  0.000  0.000  0.000  0.000  0.000  0.000  0.000
   11  0.000  0.000  0.000  0.000  0.000  0.000  0.000  0.000  0.000  0.000
   12  0.000  0.000  0.000  0.000  0.000  0.000  0.000  0.000  0.000  0.000
   13  0.000  0.000  0.000  0.000  0.000  0.000  0.000  0.000  0.000  0.000
   14  0.000  0.000  0.000  0.000  0.000  0.000  0.000  0.000  0.000  0.000
   15  0.000  0.000  0.000  0.000  0.000  0.000  0.000  0.000  0.000  0.000
   16  0.000  0.000  0.000  0.000  0.000  0.000  0.000  0.000  0.000  0.000
   17  0.000  0.000  0.000  0.000  0.000  0.000  0.000  0.000  0.000  0.000
   18  0.000  0.000  0.000  0.000  0.000  0.000  0.000  0.000  0.000  0.000
   19  0.000  0.000  0.000  0.000  0.000  0.000  0.000  0.000  0.000  0.000
   20  0.000  0.000  0.000  0.000  0.000  0.000  0.000  0.000  0.000  0.000
   21  0.000  0.000  0.000  0.000  0.000  0.000  0.000  0.000  0.000  0.000
   22  0.000  0.000  0.000  0.000  0.000  0.000  0.000  0.000  0.000  0.000
   23  0.000  0.000  0.000  0.000  0.000  0.000  0.000  0.000  0.000  0.000
   24  0.000  0.000  0.000  0.000  0.000  0.000  0.000  0.000  0.000  0.000
   25  0.915  0.000  0.000  0.000  0.000  0.000  0.000  0.000  0.000  0.915
   26  0.005  0.000  0.000  0.000  0.000  0.000  0.000  0.000  0.000  0.005
   27  0.000  0.000  0.000  0.000  0.000  0.000  0.000  0.000  0.000  0.000
   28  0.003  0.000  0.000  0.000  0.000  0.000  0.000  0.000  0.000  0.003
   29  0.026  0.000  0.000  0.000  0.000  0.000  0.000  0.000  0.000  0.026
   30  0.004  0.000  0.000  0.000  0.000  0.000  0.000  0.000  0.000  0.004
   31  0.000  0.000  0.000  0.000  0.000  0.000  0.000  0.000  0.000  0.000
   32  0.003  0.000  0.000  0.000  0.000  0.000  0.000  0.000  0.000  0.003
   33  0.018  0.000  0.000  0.000  0.000  0.000  0.000  0.000  0.000  0.018
   34  0.022  0.000  0.000  0.000  0.000  0.000  0.000  0.000  0.000  0.022
   35  0.000  0.000  0.000  0.000  0.000  0.000  0.000  0.000  0.000  0.000
   36  0.000  0.000  0.000  0.000  0.000  0.000  0.000  0.000  0.000  0.000
   37  0.000  0.000  0.000  0.000  0.000  0.000  0.000  0.000  0.000  0.000
   38  0.000  0.000  0.000  0.000  0.000  0.000  0.000  0.000  0.000  0.000
   39  0.000  0.000  0.000  0.000  0.000  0.000  0.000  0.000  0.000  0.000
   40  0.000  0.000  0.000  0.000  0.000  0.000  0.000  0.000  0.000  0.000
   41  0.000  0.000  0.000  0.000  0.000  0.000  0.000  0.000  0.000  0.000
   42  0.000  0.000  0.000  0.000  0.000  0.000  0.000  0.000  0.000  0.000
   43  0.000  0.000  0.000  0.000  0.000  0.000  0.000  0.000  0.000  0.000
tot    0.996  0.000  0.000  0.000  0.000  0.000  0.000  0.000  0.000  0.996
 
band     4 # energy  -61.98675776 # occ.  1.00000000
 
ion      s     py     pz     px    dxy    dyz    dz2    dxz  x2-y2    tot
    1  0.000  0.000  0.000  0.000  0.000  0.000  0.000  0.000  0.000  0.000
    2  0.000  0.000  0.000  0.000  0.000  0.000  0.000  0.000  0.000  0.000
    3  0.000  0.000  0.000  0.000  0.000  0.000  0.000  0.000  0.000  0.000
    4  0.000  0.000  0.000  0.000  0.000  0.000  0.000  0.000  0.000  0.000
    5  0.000  0.000  0.000  0.000  0.000  0.000  0.000  0.000  0.000  0.000
    6  0.000  0.000  0.000  0.000  0.000  0.000  0.000  0.000  0.000  0.000
    7  0.000  0.000  0.000  0.000  0.000  0.000  0.000  0.000  0.000  0.000
    8  0.000  0.000  0.000  0.000  0.000  0.000  0.000  0.000  0.000  0.000
    9  0.000  0.000  0.000  0.000  0.000  0.000  0.000  0.000  0.000  0.000
   10  0.000  0.000  0.000  0.000  0.000  0.000  0.000  0.000  0.000  0.000
   11  0.000  0.000  0.000  0.000  0.000  0.000  0.000  0.000  0.000  0.000
   12  0.000  0.000  0.000  0.000  0.000  0.000  0.000  0.000  0.000  0.000
   13  0.000  0.000  0.000  0.000  0.000  0.000  0.000  0.000  0.000  0.000
   14  0.000  0.000  0.000  0.000  0.000  0.000  0.000  0.000  0.000  0.000
   15  0.000  0.000  0.000  0.000  0.000  0.000  0.000  0.000  0.000  0.000
   16  0.000  0.000  0.000  0.000  0.000  0.000  0.000  0.000  0.000  0.000
   17  0.000  0.000  0.000  0.000  0.000  0.000  0.000  0.000  0.000  0.000
   18  0.000  0.000  0.000  0.000  0.000  0.000  0.000  0.000  0.000  0.000
   19  0.000  0.000  0.000  0.000  0.000  0.000  0.000  0.000  0.000  0.000
   20  0.000  0.000  0.000  0.000  0.000  0.000  0.000  0.000  0.000  0.000
   21  0.000  0.000  0.000  0.000  0.000  0.000  0.000  0.000  0.000  0.000
   22  0.000  0.000  0.000  0.000  0.000  0.000  0.000  0.000  0.000  0.000
   23  0.000  0.000  0.000  0.000  0.000  0.000  0.000  0.000  0.000  0.000
   24  0.000  0.000  0.000  0.000  0.000  0.000  0.000  0.000  0.000  0.000
   25  0.007  0.000  0.000  0.000  0.000  0.000  0.000  0.000  0.000  0.007
   26  0.008  0.000  0.000  0.000  0.000  0.000  0.000  0.000  0.000  0.008
   27  0.000  0.000  0.000  0.000  0.000  0.000  0.000  0.000  0.000  0.000
   28  0.000  0.000  0.000  0.000  0.000  0.000  0.000  0.000  0.000  0.000
   29  0.032  0.000  0.000  0.000  0.000  0.000  0.000  0.000  0.000  0.032
   30  0.008  0.000  0.000  0.000  0.000  0.000  0.000  0.000  0.000  0.008
   31  0.004  0.000  0.000  0.000  0.000  0.000  0.000  0.000  0.000  0.004
   32  0.000  0.000  0.000  0.000  0.000  0.000  0.000  0.000  0.000  0.000
   33  0.023  0.000  0.000  0.000  0.000  0.000  0.000  0.000  0.000  0.023
   34  0.908  0.000  0.000  0.000  0.000  0.000  0.000  0.000  0.000  0.908
   35  0.004  0.000  0.000  0.000  0.000  0.000  0.000  0.000  0.000  0.004
   36  0.000  0.000  0.000  0.000  0.000  0.000  0.000  0.000  0.000  0.000
   37  0.000  0.000  0.000  0.000  0.000  0.000  0.000  0.000  0.000  0.000
   38  0.000  0.000  0.000  0.000  0.000  0.000  0.000  0.000  0.000  0.000
   39  0.000  0.000  0.000  0.000  0.000  0.000  0.000  0.000  0.000  0.000
   40  0.000  0.000  0.000  0.000  0.000  0.000  0.000  0.000  0.000  0.000
   41  0.000  0.000  0.000  0.000  0.000  0.000  0.000  0.000  0.000  0.000
   42  0.000  0.000  0.000  0.000  0.000  0.000  0.000  0.000  0.000  0.000
   43  0.000  0.000  0.000  0.000  0.000  0.000  0.000  0.000  0.000  0.000
tot    0.996  0.000  0.000  0.000  0.000  0.000  0.000  0.000  0.000  0.996
 
band     5 # energy  -61.94536972 # occ.  1.00000000
 
ion      s     py     pz     px    dxy    dyz    dz2    dxz  x2-y2    tot
    1  0.000  0.000  0.000  0.000  0.000  0.000  0.000  0.000  0.000  0.000
    2  0.000  0.000  0.000  0.000  0.000  0.000  0.000  0.000  0.000  0.000
    3  0.000  0.000  0.000  0.000  0.000  0.000  0.000  0.000  0.000  0.000
    4  0.000  0.000  0.000  0.000  0.000  0.000  0.000  0.000  0.000  0.000
    5  0.000  0.000  0.000  0.000  0.000  0.000  0.000  0.000  0.000  0.000
    6  0.000  0.000  0.000  0.000  0.000  0.000  0.000  0.000  0.000  0.000
    7  0.000  0.000  0.000  0.000  0.000  0.000  0.000  0.000  0.000  0.000
    8  0.000  0.000  0.000  0.000  0.000  0.000  0.000  0.000  0.000  0.000
    9  0.000  0.000  0.000  0.000  0.000  0.000  0.000  0.000  0.000  0.000
   10  0.000  0.000  0.000  0.000  0.000  0.000  0.000  0.000  0.000  0.000
   11  0.000  0.000  0.000  0.000  0.000  0.000  0.000  0.000  0.000  0.000
   12  0.000  0.000  0.000  0.000  0.000  0.000  0.000  0.000  0.000  0.000
   13  0.000  0.000  0.000  0.000  0.000  0.000  0.000  0.000  0.000  0.000
   14  0.000  0.000  0.000  0.000  0.000  0.000  0.000  0.000  0.000  0.000
   15  0.000  0.000  0.000  0.000  0.000  0.000  0.000  0.000  0.000  0.000
   16  0.000  0.000  0.000  0.000  0.000  0.000  0.000  0.000  0.000  0.000
   17  0.000  0.000  0.000  0.000  0.000  0.000  0.000  0.000  0.000  0.000
   18  0.000  0.000  0.000  0.000  0.000  0.000  0.000  0.000  0.000  0.000
   19  0.000  0.000  0.000  0.000  0.000  0.000  0.000  0.000  0.000  0.000
   20  0.000  0.000  0.000  0.000  0.000  0.000  0.000  0.000  0.000  0.000
   21  0.000  0.000  0.000  0.000  0.000  0.000  0.000  0.000  0.000  0.000
   22  0.000  0.000  0.000  0.000  0.000  0.000  0.000  0.000  0.000  0.000
   23  0.000  0.000  0.000  0.000  0.000  0.000  0.000  0.000  0.000  0.000
   24  0.000  0.000  0.000  0.000  0.000  0.000  0.000  0.000  0.000  0.000
   25  0.002  0.000  0.000  0.000  0.000  0.000  0.000  0.000  0.000  0.002
   26  0.003  0.000  0.000  0.000  0.000  0.000  0.000  0.000  0.000  0.003
   27  0.004  0.000  0.000  0.000  0.000  0.000  0.000  0.000  0.000  0.004
   28  0.057  0.000  0.000  0.000  0.000  0.000  0.000  0.000  0.000  0.057
   29  0.005  0.000  0.000  0.000  0.000  0.000  0.000  0.000  0.000  0.005
   30  0.003  0.000  0.000  0.000  0.000  0.000  0.000  0.000  0.000  0.003
   31  0.023  0.000  0.000  0.000  0.000  0.000  0.000  0.000  0.000  0.023
   32  0.078  0.000  0.000  0.000  0.000  0.000  0.000  0.000  0.000  0.078
   33  0.005  0.000  0.000  0.000  0.000  0.000  0.000  0.000  0.000  0.005
   34  0.001  0.000  0.000  0.000  0.000  0.000  0.000  0.000  0.000  0.001
   35  0.021  0.000  0.000  0.000  0.000  0.000  0.000  0.000  0.000  0.021
   36  0.794  0.000  0.000  0.000  0.000  0.000  0.000  0.000  0.000  0.794
   37  0.000  0.000  0.000  0.000  0.000  0.000  0.000  0.000  0.000  0.000
   38  0.000  0.000  0.000  0.000  0.000  0.000  0.000  0.000  0.000  0.000
   39  0.000  0.000  0.000  0.000  0.000  0.000  0.000  0.000  0.000  0.000
   40  0.000  0.000  0.000  0.000  0.000  0.000  0.000  0.000  0.000  0.000
   41  0.000  0.000  0.000  0.000  0.000  0.000  0.000  0.000  0.000  0.000
   42  0.000  0.000  0.000  0.000  0.000  0.000  0.000  0.000  0.000  0.000
   43  0.000  0.000  0.000  0.000  0.000  0.000  0.000  0.000  0.000  0.000
tot    0.996  0.000  0.000  0.000  0.000  0.000  0.000  0.000  0.000  0.996
 
band     6 # energy  -61.93855740 # occ.  1.00000000
 
ion      s     py     pz     px    dxy    dyz    dz2    dxz  x2-y2    tot
    1  0.000  0.000  0.000  0.000  0.000  0.000  0.000  0.000  0.000  0.000
    2  0.000  0.000  0.000  0.000  0.000  0.000  0.000  0.000  0.000  0.000
    3  0.000  0.000  0.000  0.000  0.000  0.000  0.000  0.000  0.000  0.000
    4  0.000  0.000  0.000  0.000  0.000  0.000  0.000  0.000  0.000  0.000
    5  0.000  0.000  0.000  0.000  0.000  0.000  0.000  0.000  0.000  0.000
    6  0.000  0.000  0.000  0.000  0.000  0.000  0.000  0.000  0.000  0.000
    7  0.000  0.000  0.000  0.000  0.000  0.000  0.000  0.000  0.000  0.000
    8  0.000  0.000  0.000  0.000  0.000  0.000  0.000  0.000  0.000  0.000
    9  0.000  0.000  0.000  0.000  0.000  0.000  0.000  0.000  0.000  0.000
   10  0.000  0.000  0.000  0.000  0.000  0.000  0.000  0.000  0.000  0.000
   11  0.000  0.000  0.000  0.000  0.000  0.000  0.000  0.000  0.000  0.000
   12  0.000  0.000  0.000  0.000  0.000  0.000  0.000  0.000  0.000  0.000
   13  0.000  0.000  0.000  0.000  0.000  0.000  0.000  0.000  0.000  0.000
   14  0.000  0.000  0.000  0.000  0.000  0.000  0.000  0.000  0.000  0.000
   15  0.000  0.000  0.000  0.000  0.000  0.000  0.000  0.000  0.000  0.000
   16  0.000  0.000  0.000  0.000  0.000  0.000  0.000  0.000  0.000  0.000
   17  0.000  0.000  0.000  0.000  0.000  0.000  0.000  0.000  0.000  0.000
   18  0.000  0.000  0.000  0.000  0.000  0.000  0.000  0.000  0.000  0.000
   19  0.000  0.000  0.000  0.000  0.000  0.000  0.000  0.000  0.000  0.000
   20  0.000  0.000  0.000  0.000  0.000  0.000  0.000  0.000  0.000  0.000
   21  0.000  0.000  0.000  0.000  0.000  0.000  0.000  0.000  0.000  0.000
   22  0.000  0.000  0.000  0.000  0.000  0.000  0.000  0.000  0.000  0.000
   23  0.000  0.000  0.000  0.000  0.000  0.000  0.000  0.000  0.000  0.000
   24  0.000  0.000  0.000  0.000  0.000  0.000  0.000  0.000  0.000  0.000
   25  0.015  0.000  0.000  0.000  0.000  0.000  0.000  0.000  0.000  0.015
   26  0.402  0.000  0.000  0.000  0.000  0.000  0.000  0.000  0.000  0.402
   27  0.013  0.000  0.000  0.000  0.000  0.000  0.000  0.000  0.000  0.013
   28  0.001  0.000  0.000  0.000  0.000  0.000  0.000  0.000  0.000  0.001
   29  0.000  0.000  0.000  0.000  0.000  0.000  0.000  0.000  0.000  0.000
   30  0.516  0.000  0.000  0.000  0.000  0.000  0.000  0.000  0.000  0.516
   31  0.009  0.000  0.000  0.000  0.000  0.000  0.000  0.000  0.000  0.009
   32  0.000  0.000  0.000  0.000  0.000  0.000  0.000  0.000  0.000  0.000
   33  0.000  0.000  0.000  0.000  0.000  0.000  0.000  0.000  0.000  0.000
   34  0.020  0.000  0.000  0.000  0.000  0.000  0.000  0.000  0.000  0.020
   35  0.006  0.000  0.000  0.000  0.000  0.000  0.000  0.000  0.000  0.006
   36  0.015  0.000  0.000  0.000  0.000  0.000  0.000  0.000  0.000  0.015
   37  0.000  0.000  0.000  0.000  0.000  0.000  0.000  0.000  0.000  0.000
   38  0.000  0.000  0.000  0.000  0.000  0.000  0.000  0.000  0.000  0.000
   39  0.000  0.000  0.000  0.000  0.000  0.000  0.000  0.000  0.000  0.000
   40  0.000  0.000  0.000  0.000  0.000  0.000  0.000  0.000  0.000  0.000
   41  0.000  0.000  0.000  0.000  0.000  0.000  0.000  0.000  0.000  0.000
   42  0.000  0.000  0.000  0.000  0.000  0.000  0.000  0.000  0.000  0.000
   43  0.000  0.000  0.000  0.000  0.000  0.000  0.000  0.000  0.000  0.000
tot    0.996  0.000  0.000  0.000  0.000  0.000  0.000  0.000  0.000  0.996
 
band     7 # energy  -61.92909676 # occ.  1.00000000
 
ion      s     py     pz     px    dxy    dyz    dz2    dxz  x2-y2    tot
    1  0.000  0.000  0.000  0.000  0.000  0.000  0.000  0.000  0.000  0.000
    2  0.000  0.000  0.000  0.000  0.000  0.000  0.000  0.000  0.000  0.000
    3  0.000  0.000  0.000  0.000  0.000  0.000  0.000  0.000  0.000  0.000
    4  0.000  0.000  0.000  0.000  0.000  0.000  0.000  0.000  0.000  0.000
    5  0.000  0.000  0.000  0.000  0.000  0.000  0.000  0.000  0.000  0.000
    6  0.000  0.000  0.000  0.000  0.000  0.000  0.000  0.000  0.000  0.000
    7  0.000  0.000  0.000  0.000  0.000  0.000  0.000  0.000  0.000  0.000
    8  0.000  0.000  0.000  0.000  0.000  0.000  0.000  0.000  0.000  0.000
    9  0.000  0.000  0.000  0.000  0.000  0.000  0.000  0.000  0.000  0.000
   10  0.000  0.000  0.000  0.000  0.000  0.000  0.000  0.000  0.000  0.000
   11  0.000  0.000  0.000  0.000  0.000  0.000  0.000  0.000  0.000  0.000
   12  0.000  0.000  0.000  0.000  0.000  0.000  0.000  0.000  0.000  0.000
   13  0.000  0.000  0.000  0.000  0.000  0.000  0.000  0.000  0.000  0.000
   14  0.000  0.000  0.000  0.000  0.000  0.000  0.000  0.000  0.000  0.000
   15  0.000  0.000  0.000  0.000  0.000  0.000  0.000  0.000  0.000  0.000
   16  0.000  0.000  0.000  0.000  0.000  0.000  0.000  0.000  0.000  0.000
   17  0.000  0.000  0.000  0.000  0.000  0.000  0.000  0.000  0.000  0.000
   18  0.000  0.000  0.000  0.000  0.000  0.000  0.000  0.000  0.000  0.000
   19  0.000  0.000  0.000  0.000  0.000  0.000  0.000  0.000  0.000  0.000
   20  0.000  0.000  0.000  0.000  0.000  0.000  0.000  0.000  0.000  0.000
   21  0.000  0.000  0.000  0.000  0.000  0.000  0.000  0.000  0.000  0.000
   22  0.000  0.000  0.000  0.000  0.000  0.000  0.000  0.000  0.000  0.000
   23  0.000  0.000  0.000  0.000  0.000  0.000  0.000  0.000  0.000  0.000
   24  0.000  0.000  0.000  0.000  0.000  0.000  0.000  0.000  0.000  0.000
   25  0.000  0.000  0.000  0.000  0.000  0.000  0.000  0.000  0.000  0.000
   26  0.541  0.000  0.000  0.000  0.000  0.000  0.000  0.000  0.000  0.541
   27  0.000  0.000  0.000  0.000  0.000  0.000  0.000  0.000  0.000  0.000
   28  0.000  0.000  0.000  0.000  0.000  0.000  0.000  0.000  0.000  0.000
   29  0.002  0.000  0.000  0.000  0.000  0.000  0.000  0.000  0.000  0.002
   30  0.421  0.000  0.000  0.000  0.000  0.000  0.000  0.000  0.000  0.421
   31  0.014  0.000  0.000  0.000  0.000  0.000  0.000  0.000  0.000  0.014
   32  0.004  0.000  0.000  0.000  0.000  0.000  0.000  0.000  0.000  0.004
   33  0.002  0.000  0.000  0.000  0.000  0.000  0.000  0.000  0.000  0.002
   34  0.000  0.000  0.000  0.000  0.000  0.000  0.000  0.000  0.000  0.000
   35  0.014  0.000  0.000  0.000  0.000  0.000  0.000  0.000  0.000  0.014
   36  0.000  0.000  0.000  0.000  0.000  0.000  0.000  0.000  0.000  0.000
   37  0.000  0.000  0.000  0.000  0.000  0.000  0.000  0.000  0.000  0.000
   38  0.000  0.000  0.000  0.000  0.000  0.000  0.000  0.000  0.000  0.000
   39  0.000  0.000  0.000  0.000  0.000  0.000  0.000  0.000  0.000  0.000
   40  0.000  0.000  0.000  0.000  0.000  0.000  0.000  0.000  0.000  0.000
   41  0.000  0.000  0.000  0.000  0.000  0.000  0.000  0.000  0.000  0.000
   42  0.000  0.000  0.000  0.000  0.000  0.000  0.000  0.000  0.000  0.000
   43  0.000  0.000  0.000  0.000  0.000  0.000  0.000  0.000  0.000  0.000
tot    0.996  0.000  0.000  0.000  0.000  0.000  0.000  0.000  0.000  0.996
 
band     8 # energy  -61.92569422 # occ.  1.00000000
 
ion      s     py     pz     px    dxy    dyz    dz2    dxz  x2-y2    tot
    1  0.000  0.000  0.000  0.000  0.000  0.000  0.000  0.000  0.000  0.000
    2  0.000  0.000  0.000  0.000  0.000  0.000  0.000  0.000  0.000  0.000
    3  0.000  0.000  0.000  0.000  0.000  0.000  0.000  0.000  0.000  0.000
    4  0.000  0.000  0.000  0.000  0.000  0.000  0.000  0.000  0.000  0.000
    5  0.000  0.000  0.000  0.000  0.000  0.000  0.000  0.000  0.000  0.000
    6  0.000  0.000  0.000  0.000  0.000  0.000  0.000  0.000  0.000  0.000
    7  0.000  0.000  0.000  0.000  0.000  0.000  0.000  0.000  0.000  0.000
    8  0.000  0.000  0.000  0.000  0.000  0.000  0.000  0.000  0.000  0.000
    9  0.000  0.000  0.000  0.000  0.000  0.000  0.000  0.000  0.000  0.000
   10  0.000  0.000  0.000  0.000  0.000  0.000  0.000  0.000  0.000  0.000
   11  0.000  0.000  0.000  0.000  0.000  0.000  0.000  0.000  0.000  0.000
   12  0.000  0.000  0.000  0.000  0.000  0.000  0.000  0.000  0.000  0.000
   13  0.000  0.000  0.000  0.000  0.000  0.000  0.000  0.000  0.000  0.000
   14  0.000  0.000  0.000  0.000  0.000  0.000  0.000  0.000  0.000  0.000
   15  0.000  0.000  0.000  0.000  0.000  0.000  0.000  0.000  0.000  0.000
   16  0.000  0.000  0.000  0.000  0.000  0.000  0.000  0.000  0.000  0.000
   17  0.000  0.000  0.000  0.000  0.000  0.000  0.000  0.000  0.000  0.000
   18  0.000  0.000  0.000  0.000  0.000  0.000  0.000  0.000  0.000  0.000
   19  0.000  0.000  0.000  0.000  0.000  0.000  0.000  0.000  0.000  0.000
   20  0.000  0.000  0.000  0.000  0.000  0.000  0.000  0.000  0.000  0.000
   21  0.000  0.000  0.000  0.000  0.000  0.000  0.000  0.000  0.000  0.000
   22  0.000  0.000  0.000  0.000  0.000  0.000  0.000  0.000  0.000  0.000
   23  0.000  0.000  0.000  0.000  0.000  0.000  0.000  0.000  0.000  0.000
   24  0.000  0.000  0.000  0.000  0.000  0.000  0.000  0.000  0.000  0.000
   25  0.004  0.000  0.000  0.000  0.000  0.000  0.000  0.000  0.000  0.004
   26  0.000  0.000  0.000  0.000  0.000  0.000  0.000  0.000  0.000  0.000
   27  0.012  0.000  0.000  0.000  0.000  0.000  0.000  0.000  0.000  0.012
   28  0.109  0.000  0.000  0.000  0.000  0.000  0.000  0.000  0.000  0.109
   29  0.000  0.000  0.000  0.000  0.000  0.000  0.000  0.000  0.000  0.000
   30  0.007  0.000  0.000  0.000  0.000  0.000  0.000  0.000  0.000  0.007
   31  0.013  0.000  0.000  0.000  0.000  0.000  0.000  0.000  0.000  0.013
   32  0.703  0.000  0.000  0.000  0.000  0.000  0.000  0.000  0.000  0.703
   33  0.000  0.000  0.000  0.000  0.000  0.000  0.000  0.000  0.000  0.000
   34  0.000  0.000  0.000  0.000  0.000  0.000  0.000  0.000  0.000  0.000
   35  0.001  0.000  0.000  0.000  0.000  0.000  0.000  0.000  0.000  0.001
   36  0.146  0.000  0.000  0.000  0.000  0.000  0.000  0.000  0.000  0.146
   37  0.000  0.000  0.000  0.000  0.000  0.000  0.000  0.000  0.000  0.000
   38  0.000  0.000  0.000  0.000  0.000  0.000  0.000  0.000  0.000  0.000
   39  0.000  0.000  0.000  0.000  0.000  0.000  0.000  0.000  0.000  0.000
   40  0.000  0.000  0.000  0.000  0.000  0.000  0.000  0.000  0.000  0.000
   41  0.000  0.000  0.000  0.000  0.000  0.000  0.000  0.000  0.000  0.000
   42  0.000  0.000  0.000  0.000  0.000  0.000  0.000  0.000  0.000  0.000
   43  0.000  0.000  0.000  0.000  0.000  0.000  0.000  0.000  0.000  0.000
tot    0.996  0.000  0.000  0.000  0.000  0.000  0.000  0.000  0.000  0.996
 
band     9 # energy  -61.91715079 # occ.  1.00000000
 
ion      s     py     pz     px    dxy    dyz    dz2    dxz  x2-y2    tot
    1  0.000  0.000  0.000  0.000  0.000  0.000  0.000  0.000  0.000  0.000
    2  0.000  0.000  0.000  0.000  0.000  0.000  0.000  0.000  0.000  0.000
    3  0.000  0.000  0.000  0.000  0.000  0.000  0.000  0.000  0.000  0.000
    4  0.000  0.000  0.000  0.000  0.000  0.000  0.000  0.000  0.000  0.000
    5  0.000  0.000  0.000  0.000  0.000  0.000  0.000  0.000  0.000  0.000
    6  0.000  0.000  0.000  0.000  0.000  0.000  0.000  0.000  0.000  0.000
    7  0.000  0.000  0.000  0.000  0.000  0.000  0.000  0.000  0.000  0.000
    8  0.000  0.000  0.000  0.000  0.000  0.000  0.000  0.000  0.000  0.000
    9  0.000  0.000  0.000  0.000  0.000  0.000  0.000  0.000  0.000  0.000
   10  0.000  0.000  0.000  0.000  0.000  0.000  0.000  0.000  0.000  0.000
   11  0.000  0.000  0.000  0.000  0.000  0.000  0.000  0.000  0.000  0.000
   12  0.000  0.000  0.000  0.000  0.000  0.000  0.000  0.000  0.000  0.000
   13  0.000  0.000  0.000  0.000  0.000  0.000  0.000  0.000  0.000  0.000
   14  0.000  0.000  0.000  0.000  0.000  0.000  0.000  0.000  0.000  0.000
   15  0.000  0.000  0.000  0.000  0.000  0.000  0.000  0.000  0.000  0.000
   16  0.000  0.000  0.000  0.000  0.000  0.000  0.000  0.000  0.000  0.000
   17  0.000  0.000  0.000  0.000  0.000  0.000  0.000  0.000  0.000  0.000
   18  0.000  0.000  0.000  0.000  0.000  0.000  0.000  0.000  0.000  0.000
   19  0.000  0.000  0.000  0.000  0.000  0.000  0.000  0.000  0.000  0.000
   20  0.000  0.000  0.000  0.000  0.000  0.000  0.000  0.000  0.000  0.000
   21  0.000  0.000  0.000  0.000  0.000  0.000  0.000  0.000  0.000  0.000
   22  0.000  0.000  0.000  0.000  0.000  0.000  0.000  0.000  0.000  0.000
   23  0.000  0.000  0.000  0.000  0.000  0.000  0.000  0.000  0.000  0.000
   24  0.000  0.000  0.000  0.000  0.000  0.000  0.000  0.000  0.000  0.000
   25  0.001  0.000  0.000  0.000  0.000  0.000  0.000  0.000  0.000  0.001