unknown system                          
           1
    11.007200    0.000000    0.000000
    -0.000965    9.532200    0.000000
     0.000000    0.000000   19.986500
   S    Mo   Ni
  24  12   7
Direct configuration=     1
   0.08663356  0.16184689  0.57170126
   0.33472539  0.33056090  0.57295844
   0.08540361  0.16400204  0.41233431
   0.33546476  0.33139268  0.41212317
   0.58598299  0.16441252  0.57153498
   0.83648855  0.33130454  0.57215631
   0.58584962  0.16347932  0.41223703
   0.83497807  0.33160965  0.41275486
   0.08535712  0.49672836  0.57201592
   0.33501357  0.66210279  0.57225774
   0.08625923  0.49733735  0.41245577
   0.33665409  0.66194536  0.41291525
   0.58589381  0.49803198  0.57108811
   0.83501620  0.66295533  0.57285810
   0.58492987  0.49846898  0.41322637
   0.83808829  0.66446639  0.41248430
   0.08717474  0.82918447  0.57079235
   0.33709042  0.99765809  0.57110709
   0.08507309  0.82691682  0.41251271
   0.33775090  0.99825855  0.41273826
   0.58594311  0.83016261  0.57133981
   0.83702720  0.99907924  0.57135386
   0.58489358  0.82872167  0.41275238
   0.83755548  0.99560032  0.41310041
   0.17185508  0.32967608  0.48945645
   0.42067856  0.16532105  0.48993150
   0.66949295  0.32975316  0.49020175
   0.92101024  0.16276641  0.49023544
   0.17113463  0.66387489  0.48963655
   0.42009087  0.49602086  0.48967308
   0.66859855  0.66320027  0.48995110
   0.91876558  0.49729486  0.49013459
   0.17024120  0.99555808  0.48927688
   0.41889702  0.83058736  0.48961500
   0.66835864  0.99665279  0.49012154
   0.91982710  0.83172546  0.48861004
   0.41980163  0.16289348  0.62093629
   0.67156534  0.32912421  0.62247982
   0.91833065  0.16349901  0.62205342
   0.41786358  0.49709542  0.62173425
   0.66968972  0.66285810  0.62245484
   0.91988553  0.49812817  0.62216207
   0.66943691  0.99780009  0.62128831
