unknown system                          
           1
    12.729728    0.000009    0.000000
    -6.364856   11.024272    0.000000
     0.000000    0.000000   19.986527
   S    Mo
  32  16
Direct configuration=     4
   0.08374350  0.16689228  0.57814024
   0.33368722  0.16909157  0.57851788
   0.58276271  0.16731480  0.57874582
   0.83392376  0.16761424  0.57716768
   0.08468246  0.41688161  0.57756273
   0.33280697  0.41804191  0.57887187
   0.58315866  0.41611394  0.57923850
   0.83189195  0.41630256  0.57827640
   0.08370275  0.66590055  0.57908268
   0.33150235  0.66581358  0.57851050
   0.58295023  0.66792814  0.57810218
   0.83362035  0.66619488  0.57756446
   0.08355413  0.91683947  0.57843430
   0.33251575  0.91415668  0.57730829
   0.58265268  0.91581378  0.57841365
   0.83238790  0.91721480  0.57861776
   0.08210228  0.16594056  0.42154675
   0.33216793  0.16580310  0.42169300
   0.58274981  0.16498098  0.42168861
   0.83284548  0.16618576  0.42171086
   0.08191452  0.41469804  0.42257615
   0.33371594  0.41509992  0.42205333
   0.58368731  0.41786299  0.42240807
   0.83413053  0.41586476  0.42106269
   0.08452705  0.66704345  0.42178754
   0.33226428  0.66597991  0.42231894
   0.58205836  0.66555576  0.42111693
   0.83240079  0.66650695  0.42224575
   0.08268714  0.91570757  0.42120405
   0.33281518  0.91593279  0.42166818
   0.58442086  0.91656160  0.42180576
   0.83452700  0.91787655  0.42320876
   0.16714233  0.08349795  0.50007109
   0.41692080  0.08352842  0.50062162
   0.66637957  0.08337015  0.50020739
   0.91691586  0.08346516  0.50032425
   0.16714821  0.33403569  0.49968103
   0.41703690  0.33355179  0.49964650
   0.66657347  0.33263416  0.49931092
   0.91620749  0.33282146  0.49946203
   0.16696448  0.58383114  0.50005370
   0.41738951  0.58350211  0.49965364
   0.66652862  0.58330775  0.50047973
   0.91664790  0.58336604  0.49990639
   0.16538315  0.83250359  0.49986430
   0.41607185  0.83272652  0.49990119
   0.66657415  0.83322952  0.50005235
   0.91652653  0.83280035  0.49987807
Direct configuration=     8
   0.08446819  0.16741180  0.57797079
   0.33430944  0.17247423  0.57885000
   0.58217713  0.16836314  0.57937576
   0.83484270  0.16905706  0.57575305
   0.08657397  0.41734360  0.57663780
   0.33229931  0.42005792  0.57963884
   0.58308678  0.41555958  0.58048725
   0.83014462  0.41599602  0.57825543
   0.08430658  0.66506857  0.58014411
   0.32927976  0.66488119  0.57882526
   0.58259018  0.66976853  0.57789456
   0.83415448  0.66576187  0.57666805
   0.08398706  0.91724928  0.57864845
   0.33155487  0.91103787  0.57606274
   0.58188587  0.91487641  0.57860472
   0.83130281  0.91810753  0.57909085
   0.08065202  0.16517572  0.42130776
   0.33081958  0.16485008  0.42164697
   0.58209487  0.16291805  0.42162946
   0.83233122  0.16569912  0.42167099
   0.08022800  0.41233511  0.42364157
   0.33438040  0.41324968  0.42244215
   0.58432441  0.41962635  0.42327664
   0.83532339  0.41501147  0.42016279
   0.08621810  0.66770541  0.42184763
   0.33102019  0.66525345  0.42305987
   0.58057381  0.66430149  0.42030627
   0.83130442  0.66646369  0.42290346
   0.08197709  0.91463686  0.42051300
   0.33227290  0.91516835  0.42159794
   0.58598751  0.91660905  0.42190514
   0.83624055  0.91964234  0.42512711
   0.16791170  0.08389244  0.50016312
   0.41738574  0.08396583  0.50144925
   0.66613031  0.08359269  0.50048995
   0.91740254  0.08384555  0.50076405
   0.16794897  0.33513326  0.49925976
   0.41768104  0.33403848  0.49919975
   0.66659190  0.33188717  0.49839503
   0.91574135  0.33233751  0.49875443
   0.16748496  0.58465832  0.50012892
   0.41847410  0.58390656  0.49920039
   0.66647590  0.58346480  0.50113162
   0.91678418  0.58357452  0.49977642
   0.16382036  0.83157522  0.49968513
   0.41543842  0.83208727  0.49976118
   0.66659366  0.83327301  0.50012007
   0.91649944  0.83229434  0.49973346
Direct configuration=    12
   0.08527965  0.16802355  0.57775793
   0.33494586  0.17583578  0.57914501
   0.58164572  0.16943033  0.57995843
   0.83573506  0.17051002  0.57440025
   0.08836734  0.41779324  0.57569399
   0.33188809  0.42211115  0.58029106
   0.58304391  0.41499301  0.58161241
   0.82842557  0.41567013  0.57811481
   0.08483365  0.66423033  0.58112546
   0.32718617  0.66398262  0.57908739
   0.58222591  0.67157503  0.57767501
   0.83470754  0.66534757  0.57581553
   0.08440570  0.91765308  0.57880631
   0.33052394  0.90796723  0.57483766
   0.58108521  0.91395589  0.57874885
   0.83025952  0.91896474  0.57955004
   0.07927887  0.16444080  0.42112504
   0.32958612  0.16391271  0.42165595
   0.58136462  0.16081396  0.42160981
   0.83177718  0.16512785  0.42164538
   0.07865509  0.41012033  0.42461572
   0.33506910  0.41149850  0.42278053
   0.58501684  0.42138255  0.42412347
   0.83649229  0.41421394  0.41926713
   0.08782187  0.66831589  0.42191522
   0.32983776  0.66452432  0.42375420
   0.57922086  0.66312145  0.41954258
   0.83018358  0.66638101  0.42355061
   0.08125932  0.91359663  0.41988114
   0.33171932  0.91445613  0.42160360
   0.58750850  0.91666482  0.42205018
   0.83791784  0.92135608  0.42699709
   0.16866530  0.08427096  0.50025175
   0.41780726  0.08439249  0.50229032
   0.66584124  0.08378994  0.50079244
   0.91791580  0.08428326  0.50123203
   0.16879235  0.33619197  0.49884023
   0.41834595  0.33455599  0.49880295
   0.66659861  0.33112466  0.49746711
   0.91525916  0.33187587  0.49805620
   0.16795240  0.58544702  0.50021448
   0.41951436  0.58430423  0.49875805
   0.66638228  0.58364082  0.50182616
   0.91695365  0.58373694  0.49963041
   0.16222871  0.83061221  0.49950687
   0.41482230  0.83139686  0.49959699
   0.66660327  0.83331247  0.50018430
   0.91650154  0.83182462  0.49962929
Direct configuration=    16
   0.08624639  0.16879630  0.57749673
   0.33560830  0.17920854  0.57941154
   0.58119476  0.17054507  0.58049766
   0.83658830  0.17199395  0.57316089
   0.09002523  0.41823179  0.57473699
   0.33162067  0.42426150  0.58079921
   0.58304755  0.41440613  0.58258466
   0.82672535  0.41531003  0.57780386
   0.08524402  0.66336795  0.58201823
   0.32527362  0.66313141  0.57929928
   0.58184270  0.67334400  0.57746123
   0.83530099  0.66495832  0.57505100
   0.08480825  0.91805308  0.57890043
   0.32935457  0.90493846  0.57366028
   0.58021577  0.91304836  0.57884201
   0.82926422  0.91978271  0.58002203
   0.07801304  0.16374513  0.42100569
   0.32852572  0.16299146  0.42172924
   0.58049748  0.15861239  0.42163224
   0.83114889  0.16440952  0.42162147
   0.07725756  0.40812655  0.42541859
   0.33580173  0.40989199  0.42301049
   0.58581163  0.42315252  0.42492151
   0.83763380  0.41349151  0.41833694
   0.08930286  0.66884659  0.42196754
   0.32874637  0.66378191  0.42435450
   0.57805795  0.66204119  0.41881713
   0.82900600  0.66623197  0.42416851
   0.08051461  0.91258427  0.41931092
   0.33113598  0.91381378  0.42170692
   0.58897690  0.91673746  0.42224481
   0.83955055  0.92299834  0.42878379
   0.16940569  0.08463092  0.50033851
   0.41816533  0.08480737  0.50316629
   0.66548390  0.08394683  0.50113179
   0.91848290  0.08482566  0.50175542
   0.16972046  0.33720123  0.49841648
   0.41905911  0.33512660  0.49847945
   0.66658803  0.33032410  0.49650324
   0.91474067  0.33144297  0.49736133
   0.16833545  0.58618173  0.50031757
   0.42049962  0.58469614  0.49832443
   0.66622274  0.58385291  0.50260065
   0.91717674  0.58382506  0.49945379
   0.16056698  0.82957995  0.49932767
   0.41422801  0.83061056  0.49938851
   0.66660183  0.83335141  0.50024423
   0.91655321  0.83140520  0.49958888
Direct configuration=    20
   0.08744564  0.16980858  0.57718557
   0.33630002  0.18259881  0.57966137
   0.58086000  0.17173273  0.58099424
   0.83737366  0.17351824  0.57211203
   0.09148620  0.41865497  0.57378467
   0.33155352  0.42656377  0.58112826
   0.58312056  0.41379826  0.58336475
   0.82504780  0.41490102  0.57726518
   0.08548414  0.66246504  0.58280589
   0.32362228  0.66235308  0.57946478
   0.58142029  0.67505053  0.57727988
   0.83595762  0.66460366  0.57443578
   0.08518975  0.91844873  0.57892300
   0.32796898  0.90197010  0.57257641
   0.57924078  0.91215541  0.57887813
   0.82833131  0.92055414  0.58053643
   0.07690337  0.16310654  0.42095941
   0.32772143  0.16209854  0.42187818
   0.57942274  0.15626284  0.42170150
   0.83040978  0.16347569  0.42158913
   0.07612691  0.40645982  0.42594547
   0.33659467  0.40850269  0.42305877
   0.58675869  0.42494815  0.42563307
   0.83873031  0.41287102  0.41733116
   0.09060259  0.66925458  0.42197396
   0.32779143  0.66301799  0.42479736
   0.57716361  0.66109964  0.41812678
   0.82774292  0.66598664  0.42473544
   0.07972362  0.91160234  0.41881036
   0.33050311  0.91326527  0.42193302
   0.59036979  0.91683762  0.42249017
   0.84111137  0.92452760  0.43043011
   0.17013117  0.08496751  0.50042552
   0.41843238  0.08520492  0.50409689
   0.66502752  0.08404228  0.50152625
   0.91913310  0.08552765  0.50236434
   0.17077875  0.33814172  0.49798227
   0.41985113  0.33577237  0.49825747
   0.66655406  0.32946427  0.49547962
   0.91416534  0.33105014  0.49666524
   0.16859196  0.58683681  0.50044432
   0.42141059  0.58508119  0.49789778
   0.66597080  0.58412149  0.50349350
   0.91747332  0.58380275  0.49922832
   0.15879837  0.82844514  0.49914681
   0.41366669  0.82967999  0.49911219
   0.66659187  0.83339742  0.50029859
   0.91667843  0.83105510  0.49964023
Direct configuration=    24
   0.08895264  0.17113934  0.57683152
   0.33700778  0.18594968  0.57990921
   0.58069008  0.17300297  0.58144178
   0.83803725  0.17506648  0.57136651
   0.09264895  0.41904410  0.57287488
   0.33175374  0.42904119  0.58123451
   0.58329216  0.41318223  0.58389632
   0.82342929  0.41443176  0.57644039
   0.08548217  0.66151414  0.58345617
   0.32235564  0.66169169  0.57958582
   0.58093543  0.67663153  0.57716986
   0.83669621  0.66429729  0.57405294
   0.08553831  0.91883284  0.57886777
   0.32629807  0.89913115  0.57165836
   0.57813048  0.91129209  0.57884950
   0.82749364  0.92126180  0.58111989
   0.07602936  0.16255798  0.42099968
   0.32729099  0.16126860  0.42211595
   0.57806895  0.15374208  0.42182373
   0.82952935  0.16226324  0.42154412
   0.07539059  0.40526789  0.42607008
   0.33745745  0.40744081  0.42283993
   0.58789941  0.42675605  0.42620499
   0.83973844  0.41239160  0.41621590
   0.09162632  0.66947695  0.42189516
   0.32703781  0.66223060  0.42500038
   0.57664616  0.66035962  0.41748347
   0.82638243  0.66561700  0.42522571
   0.07887442  0.91066927  0.41839840
   0.32980508  0.91284590  0.42230819
   0.59163243  0.91697690  0.42278098
   0.84254330  0.92587083  0.43184579
   0.17082920  0.08527083  0.50051427
   0.41856951  0.08557068  0.50509175
   0.66444375  0.08404798  0.50199205
   0.91988993  0.08644320  0.50308524
   0.17200557  0.33897972  0.49753319
   0.42074840  0.33651222  0.49817012
   0.66648991  0.32853403  0.49438124
   0.91352049  0.33071799  0.49596866
   0.16866908  0.58737123  0.50059680
   0.42221086  0.58545352  0.49747957
   0.66560256  0.58446771  0.50453519
   0.91785811  0.58362593  0.49893358
   0.15690702  0.82718609  0.49896634
   0.41315976  0.82856346  0.49874489
   0.66658066  0.83346205  0.50034546
   0.91690187  0.83080141  0.49981534
Direct configuration=    28
   0.09080798  0.17283644  0.57645848
   0.33769051  0.18909316  0.58017149
   0.58074114  0.17432829  0.58182265
   0.83849832  0.17657902  0.57106530
   0.09336978  0.41935649  0.57207057
   0.33228597  0.43163996  0.58107352
   0.58359353  0.41259268  0.58410931
   0.82196000  0.41390190  0.57529342
   0.08515632  0.66052977  0.58391726
   0.32163646  0.66121107  0.57965854
   0.58037115  0.67797266  0.57718023
   0.83751890  0.66405552  0.57399819
   0.08583215  0.91918716  0.57873597
   0.32432451  0.89656420  0.57100316
   0.57688223  0.91049577  0.57875014
   0.82681127  0.92187301  0.58178281
   0.07550272  0.16215069  0.42114121
   0.32737699  0.16056857  0.42245330
   0.57639303  0.15109418  0.42200324
   0.82850278  0.16074583  0.42149378
   0.07519584  0.40472509  0.42567334
   0.33838527  0.40684878  0.42227783
   0.58924052  0.42851563  0.42657105
   0.84057923  0.41210302  0.41498497
   0.09224230  0.66943532  0.42168855
   0.32656193  0.66143102  0.42487356
   0.57663507  0.65991070  0.41692490
   0.82495342  0.66511063  0.42561289
   0.07797621  0.90983078  0.41810774
   0.32904174  0.91260125  0.42284947
   0.59266538  0.91716339  0.42309957
   0.84375437  0.92692480  0.43290784
   0.17146925  0.08552404  0.50060378
   0.41852901  0.08587718  0.50613554
   0.66372009  0.08393189  0.50253472
   0.92075432  0.08760085  0.50392559
   0.17340808  0.33966534  0.49707099
   0.42175626  0.33735246  0.49824767
   0.66638956  0.32754786  0.49321834
   0.91281657  0.33047792  0.49528354
   0.16851439  0.58772889  0.50076787
   0.42284180  0.58579978  0.49707796
   0.66510865  0.58490529  0.50572766
   0.91832962  0.58325167  0.49855336
   0.15492691  0.82581321  0.49879330
   0.41273998  0.82725084  0.49827475
   0.66658078  0.83355894  0.50038263
   0.91723917  0.83067802  0.50014211
Direct configuration=    32
   0.09297299  0.17487065  0.57611128
   0.33827798  0.19174848  0.58046240
   0.58105557  0.17562910  0.58211005
   0.83867017  0.17795375  0.57133080
   0.09349886  0.41952422  0.57144787
   0.33317878  0.43419456  0.58062390
   0.58404589  0.41208596  0.58394602
   0.82078179  0.41332952  0.57384701
   0.08444527  0.65955668  0.58412936
   0.32161598  0.66097830  0.57967062
   0.57973051  0.67892741  0.57735595
   0.83839746  0.66388997  0.57434441
   0.08604332  0.91948298  0.57854465
   0.32213267  0.89446904  0.57070459
   0.57554152  0.90982359  0.57858245
   0.82636386  0.92234450  0.58250394
   0.07543798  0.16194318  0.42139253
   0.32809752  0.16009110  0.42289100
   0.57442163  0.14845893  0.42223814
   0.82737284  0.15897500  0.42146216
   0.07565119  0.40496758  0.42470666
   0.33935482  0.40685684  0.42134951
   0.59072472  0.43011550  0.42667296
   0.84114887  0.41204820  0.41368088
   0.09231754  0.66906169  0.42132420
   0.32642069  0.66064725  0.42435521
   0.57723633  0.65984803  0.41651539
   0.82354318  0.66448968  0.42588216
   0.07707019  0.90915865  0.41797766
   0.32823905  0.91257164  0.42354809
   0.59333810  0.91739407  0.42341294
   0.84463899  0.92758861  0.43349678
   0.17200473  0.08570674  0.50068918
   0.41826985  0.08608698  0.50717748
   0.66287726  0.08367041  0.50313871
   0.92168672  0.08897016  0.50485625
   0.17493618  0.34014634  0.49660645
   0.42284061  0.33827591  0.49849944
   0.66625074  0.32655753  0.49203927
   0.91210016  0.33036377  0.49463450
   0.16810296  0.58785462  0.50093674
   0.42323444  0.58610089  0.49670782
   0.66451082  0.58542879  0.50702198
   0.91885762  0.58265926  0.49808599
   0.15296165  0.82438663  0.49863976
   0.41244216  0.82579203  0.49771574
   0.66660785  0.83369878  0.50040913
   0.91768163  0.83071456  0.50062843
Direct configuration=    36
   0.09532045  0.17712088  0.57584532
   0.33869320  0.19361423  0.58078923
   0.58163500  0.17679284  0.58227956
   0.83850290  0.17908621  0.57219743
   0.09295094  0.41947251  0.57106133
   0.33439546  0.43646033  0.57991101
   0.58465000  0.41172097  0.58339828
   0.82003865  0.41274743  0.57219640
   0.08334343  0.65865560  0.58405205
   0.32235023  0.66102968  0.57960245
   0.57904200  0.67938107  0.57771589
   0.83927569  0.66379728  0.57509653
   0.08615074  0.91969193  0.57832894
   0.31990803  0.89302123  0.57080557
   0.57419641  0.90932866  0.57836177
   0.82622034  0.92264249  0.58322970
   0.07589738  0.16197469  0.42174904
   0.32947965  0.15992209  0.42341696
   0.57226177  0.14603543  0.42251893
   0.82622754  0.15708616  0.42148779
   0.07675630  0.40600929  0.42324592
   0.34033406  0.40751418  0.42011885
   0.59223368  0.43143281  0.42649314
   0.84135884  0.41223613  0.41238935
   0.09178357  0.66833522  0.42080241
   0.32661126  0.65991459  0.42345241
   0.57847335  0.66023036  0.41632653
   0.82227790  0.66381579  0.42604646
   0.07622050  0.90872556  0.41803642
   0.32744388  0.91276735  0.42436323
   0.59354028  0.91765060  0.42368107
   0.84512927  0.92782035  0.43356168
   0.17239172  0.08580493  0.50076281
   0.41777901  0.08616639  0.50814529
   0.66197110  0.08326216  0.50376786
   0.92261082  0.09045459  0.50581287
   0.17648774  0.34039823  0.49615484
   0.42393048  0.33924408  0.49889860
   0.66607669  0.32563981  0.49091831
   0.91144508  0.33039325  0.49404858
   0.16746276  0.58772234  0.50107182
   0.42334157  0.58634170  0.49638291
   0.66386601  0.58601038  0.50832330
   0.91938446  0.58186806  0.49754878
   0.15115732  0.82300299  0.49851851
   0.41228392  0.82429493  0.49711068
   0.66667462  0.83388369  0.50042734
   0.91818906  0.83092010  0.50125133
Direct configuration=    40
   0.09768590  0.17942085  0.57570649
   0.33888640  0.19449771  0.58115054
   0.58243528  0.17772020  0.58232072
   0.83801046  0.17992132  0.57358637
   0.09174615  0.41914666  0.57091441
   0.33584503  0.43820606  0.57900284
   0.58539002  0.41153251  0.58251818
   0.81981414  0.41218728  0.57047536
   0.08190412  0.65787302  0.58368296
   0.32376230  0.66134862  0.57943177
   0.57834821  0.67930846  0.57824361
   0.84009207  0.66375655  0.57618322
   0.08615229  0.91979919  0.57813247
   0.31786260  0.89228789  0.57127596
   0.57294034  0.90903212  0.57811280
   0.82641076  0.92276109  0.58389481
   0.07686059  0.16224609  0.42219470
   0.33144201  0.16010753  0.42401323
   0.57005659  0.14399529  0.42283328
   0.82516501  0.15524694  0.42161286
   0.07839437  0.40772558  0.42147083
   0.34130141  0.40876325  0.41871727
   0.59363416  0.43239047  0.42606701
   0.84117278  0.41263096  0.41120246
   0.09067236  0.66729467  0.42015459
   0.32706396  0.65925986  0.42224251
   0.58027411  0.66105621  0.41641111
   0.82127183  0.66316897  0.42614913
   0.07548682  0.90857443  0.41828868
   0.32670206  0.91315851  0.42523808
   0.59323040  0.91790374  0.42387291
   0.84523167  0.92766451  0.43315385
   0.17261060  0.08581903  0.50081760
   0.41707726  0.08609881  0.50897868
   0.66106969  0.08272887  0.50438074
   0.92344474  0.09193031  0.50672333
   0.17795310  0.34044314  0.49572607
   0.42494734  0.34021516  0.49938889
   0.66587427  0.32486402  0.48992130
   0.91092172  0.33055530  0.49354016
   0.16666885  0.58734862  0.50114087
   0.42316264  0.58652139  0.49610594
   0.66324765  0.58661248  0.50952957
   0.91984490  0.58093073  0.49696924
   0.14963829  0.82175249  0.49843726
   0.41225350  0.82288152  0.49651383
   0.66678572  0.83410686  0.50044361
   0.91870198  0.83127784  0.50196613
Direct configuration=    44
   0.09992986  0.18162250  0.57571922
   0.33884917  0.19436180  0.58153708
   0.58338718  0.17835570  0.58223781
   0.83725648  0.18046591  0.57534774
   0.08998428  0.41852546  0.57096324
   0.33742238  0.43927994  0.57798150
   0.58624757  0.41152066  0.58139299
   0.82011185  0.41166530  0.56880665
   0.08020942  0.65722375  0.58305040
   0.32568462  0.66187512  0.57913845
   0.57768884  0.67877183  0.57889919
   0.84080050  0.66373797  0.57749345
   0.08606498  0.91980680  0.57799442
   0.31615533  0.89222125  0.57203728
   0.57183846  0.90891681  0.57786173
   0.82692651  0.92272140  0.58444489
   0.07824607  0.16272539  0.42270967
   0.33384008  0.16065026  0.42466523
   0.56792895  0.14242659  0.42317214
   0.82425896  0.15359665  0.42187245
   0.08039483  0.40992115  0.41958669
   0.34225469  0.41048141  0.41728816
   0.59482391  0.43297835  0.42546230
   0.84060683  0.41316776  0.41018467
   0.08908998  0.66601609  0.41942678
   0.32767714  0.65869631  0.42083434
   0.58251566  0.66227981  0.41679375
   0.82059300  0.66262028  0.42624873
   0.07490483  0.90871108  0.41871966
   0.32604031  0.91368913  0.42612244
   0.59243774  0.91812247  0.42397524
   0.84501314  0.92722276  0.43239594
   0.17267023  0.08576213  0.50085010
   0.41620453  0.08588539  0.50965096
   0.66022729  0.08210269  0.50494632
   0.92413081  0.09329497  0.50753562
   0.17925674  0.34033917  0.49531964
   0.42583313  0.34115937  0.49990797
   0.66565045  0.32427008  0.48908264
   0.91057296  0.33081516  0.49310586
   0.16581107  0.58677841  0.50111943
   0.42273868  0.58665435  0.49586641
   0.66272194  0.58720433  0.51056737
   0.92018591  0.57990864  0.49637148
   0.14846678  0.82068733  0.49839687
   0.41231613  0.82164308  0.49596924
   0.66693758  0.83435771  0.50046672
   0.91916203  0.83175608  0.50272701
Direct configuration=    48
   0.10196131  0.18362371  0.57588815
   0.33860475  0.19328088  0.58193375
   0.58441889  0.17868469  0.58204301
   0.83632057  0.18076213  0.57731959
   0.08779378  0.41761755  0.57114127
   0.33903765  0.43961008  0.57691932
   0.58721169  0.41165840  0.58011425
   0.82087798  0.41118088  0.56727937
   0.07834091  0.65669513  0.58219426
   0.32792532  0.66252993  0.57870769
   0.57709217  0.67787759  0.57963697
   0.84137377  0.66371339  0.57891702
   0.08591674  0.91972760  0.57794336
   0.31486698  0.89271146  0.57300210
   0.57092203  0.90894077  0.57763139
   0.82773945  0.92255786  0.58484450
   0.07995094  0.16336570  0.42327493
   0.33651970  0.16152959  0.42536389
   0.56596019  0.14134109  0.42353140
   0.82354977  0.15222440  0.42229045
   0.08259802  0.41240510  0.41776264
   0.34320498  0.41253833  0.41594691
   0.59574289  0.43323291  0.42475014
   0.83970469  0.41377503  0.40936583
   0.08716752  0.66458392  0.41866293
   0.32835653  0.65823103  0.41932996
   0.58507330  0.66384151  0.41747842
   0.82026627  0.66222091  0.42640103
   0.07448678  0.90911793  0.41930713
   0.32546509  0.91429758  0.42698203
   0.59123191  0.91828002  0.42398971
   0.84456140  0.92660619  0.43142779
   0.17259686  0.08565275  0.50086139
   0.41520317  0.08553614  0.51016590
   0.65947601  0.08141416  0.50544770
   0.92464239  0.09448677  0.50822530
   0.18036530  0.34015587  0.49492766
   0.42655631  0.34205948  0.50040500
   0.66541093  0.32387084  0.48840811
   0.91041290  0.33112821  0.49273057
   0.16496671  0.58606181  0.50099203
   0.42213019  0.58676313  0.49564614
   0.66233807  0.58776911  0.51139892
   0.92037153  0.57885366  0.49576967
   0.14764981  0.81982251  0.49839398
   0.41242916  0.82062900  0.49550215
   0.66712224  0.83462773  0.50050599
   0.91952335  0.83232194  0.50350015
Direct configuration=    52
   0.10372720  0.18536193  0.57620495
   0.33819145  0.19137920  0.58232183
   0.58546539  0.17871597  0.58175040
   0.83527552  0.18085645  0.57935990
   0.08530042  0.41645267  0.57138032
   0.34062289  0.43917826  0.57587092
   0.58827938  0.41190367  0.57876320
   0.82202997  0.41072315  0.56595390
   0.07637012  0.65625975  0.58115398
   0.33030647  0.66323187  0.57813216
   0.57657567  0.67673758  0.58041557
   0.84179636  0.66366173  0.58036310
   0.08573857  0.91957780  0.57799761
   0.31401716  0.89363629  0.57409662
   0.57020018  0.90905271  0.57744098
   0.82881765  0.92230663  0.58507366
   0.08187444  0.16411786  0.42387138
   0.33934108  0.16272006  0.42610137
   0.56419935  0.14070901  0.42390976
   0.82305310  0.15117829  0.42287979
   0.08488077  0.41502407  0.41611516
   0.34416644  0.41482579  0.41477214
   0.59636055  0.43320864  0.42398895
   0.83851469  0.41438636  0.40875129
   0.08503046  0.66307645  0.41789767
   0.32903301  0.65787377  0.41780967
   0.58784144  0.66568560  0.41845781
   0.82029250  0.66200627  0.42664935
   0.07423158  0.90976907  0.42002946
   0.32497067  0.91492768  0.42779446
   0.58969562  0.91835582  0.42392527
   0.84395604  0.92590773  0.43037249
   0.17242208  0.08550916  0.50085696
   0.41411079  0.08506178  0.51054371
   0.65883141  0.08068766  0.50587747
   0.92497535  0.09547660  0.50878793
   0.18127332  0.33995704  0.49454092
   0.42710385  0.34290316  0.50084463
   0.66516116  0.32366529  0.48788933
   0.91043803  0.33145027  0.49239532
   0.16419173  0.58524057  0.50074938
   0.42140006  0.58687045  0.49542609
   0.66213102  0.58830153  0.51201046
   0.92037733  0.57780411  0.49516964
   0.14716599  0.81915293  0.49842423
   0.41255237  0.81985920  0.49512260
   0.66733115  0.83491340  0.50057052
   0.91975325  0.83294804  0.50426509
Direct configuration=    56
   0.10519459  0.18679950  0.57665287
   0.33765050  0.18879380  0.58268167
   0.58646804  0.17846825  0.58137407
   0.83417943  0.18078275  0.58135338
   0.08262055  0.41507564  0.57161989
   0.34212680  0.43800262  0.57487517
   0.58945050  0.41220809  0.57740932
   0.82347314  0.41027718  0.56487368
   0.07436266  0.65588505  0.57996584
   0.33267037  0.66390358  0.57741405
   0.57614979  0.67545065  0.58119993
   0.84205783  0.66356958  0.58176117
   0.08555991  0.91937249  0.57816750
   0.31358924  0.89488341  0.57526521
   0.56967190  0.90920096  0.57730731
   0.83013027  0.92200136  0.58512289
   0.08392255  0.16493465  0.42447662
   0.34217801  0.16419835  0.42686578
   0.56267898  0.14048633  0.42430558
   0.82277050  0.15048103  0.42364296
   0.08715367  0.41766125  0.41471716
   0.34514968  0.41726102  0.41381281
   0.59666087  0.43296110  0.42322148
   0.83707964  0.41494234  0.40833291
   0.08279105  0.66156426  0.41715609
   0.32966289  0.65764203  0.41633377
   0.59073042  0.66776187  0.41971599
   0.82066354  0.66200411  0.42702205
   0.07413274  0.91063722  0.42086736
   0.32454615  0.91553091  0.42854191
   0.58791296  0.91833577  0.42379235
   0.84325908  0.92519744  0.42932724
   0.17217678  0.08534736  0.50084639
   0.41296113  0.08447003  0.51080978
   0.65830075  0.07994190  0.50623222
   0.92513800  0.09625335  0.50922953
   0.18198747  0.33979457  0.49415347
   0.42747322  0.34367627  0.50120328
   0.66490817  0.32364894  0.48751557
   0.91063775  0.33174185  0.49208183
   0.16352359  0.58434563  0.50038558
   0.42060683  0.58699400  0.49519082
   0.66212751  0.58880272  0.51239982
   0.92018356  0.57678797  0.49457308
   0.14698612  0.81866849  0.49848417
   0.41265131  0.81933965  0.49483206
   0.66755744  0.83521710  0.50066943
   0.91982942  0.83361274  0.50501066
Direct configuration=    60
   0.10633917  0.18791361  0.57720855
   0.33701883  0.18566016  0.58299601
   0.58737165  0.17796403  0.58092857
   0.83307626  0.18055766  0.58320743
   0.07986611  0.41354346  0.57180944
   0.34350674  0.43613466  0.57396049
   0.59072170  0.41252198  0.57611260
   0.82510810  0.40982918  0.56407302
   0.07238421  0.65553758  0.57866469
   0.33487367  0.66447163  0.57656635
   0.57582095  0.67409740  0.58196015
   0.84214879  0.66343006  0.58305593
   0.08540623  0.91912367  0.57845690
   0.31354815  0.89635383  0.57646703
   0.56933241  0.90933735  0.57724550
   0.83164562  0.92167371  0.58499119
   0.08600485  0.16577084  0.42506216
   0.34491110  0.16594158  0.42763791
   0.56142568  0.14062785  0.42471486
   0.82269553  0.15013965  0.42457128
   0.08934896  0.42022203  0.41361081
   0.34615833  0.41977761  0.41309772
   0.59663390  0.43254149  0.42247739
   0.83543561  0.41538895  0.40809536
   0.08055032  0.66011279  0.41645524
   0.33022240  0.65756187  0.41494847
   0.59365626  0.67001983  0.42122614
   0.82136861  0.66224084  0.42753254
   0.07418175  0.91169424  0.42180267
   0.32417968  0.91606568  0.42920584
   0.58596751  0.91821231  0.42360005
   0.84251620  0.92452782  0.42836579
   0.17188966  0.08518135  0.50084330
   0.41178677  0.08376505  0.51098847
   0.65788818  0.07919162  0.50650930
   0.92514513  0.09681334  0.50956016
   0.18251707  0.33970833  0.49376498
   0.42766931  0.34435994  0.50146418
   0.66466166  0.32381855  0.48727940
   0.91100003  0.33196940  0.49177425
   0.16298643  0.58339992  0.49989674
   0.41980394  0.58714391  0.49493060
   0.66234969  0.58927578  0.51256965
   0.91977104  0.57582635  0.49398116
   0.14708276  0.81836178  0.49857190
   0.41269698  0.81907213  0.49462855
   0.66779713  0.83554734  0.50081280
   0.91973818  0.83429845  0.50573072
Direct configuration=    64
   0.10714025  0.18869137  0.57784258
   0.33632484  0.18210949  0.58325371
   0.58812262  0.17722782  0.58043002
   0.83199860  0.18018295  0.58484670
   0.07715093  0.41192332  0.57190829
   0.34472148  0.43366310  0.57315071
   0.59208104  0.41279861  0.57492506
   0.82683578  0.40937004  0.56357915
   0.07050378  0.65518409  0.57728642
   0.33678181  0.66486687  0.57561338
   0.57559368  0.67274064  0.58266957
   0.84205983  0.66324114  0.58420269
   0.08529724  0.91883934  0.57886391
   0.31385019  0.89795903  0.57767155
   0.56917519  0.90941900  0.57726885
   0.83332624  0.92135591  0.58468722
   0.08803142  0.16658257  0.42559269
   0.34742307  0.16792139  0.42839034
   0.56046438  0.14109109  0.42513015
   0.82281587  0.15014865  0.42564308
   0.09140892  0.42262111  0.41281650
   0.34718814  0.42231675  0.41264113
   0.59627321  0.43199672  0.42177676
   0.83361414  0.41567587  0.40801863
   0.07840082  0.65878445  0.41580611
   0.33070157  0.65766545  0.41369069
   0.59653276  0.67240262  0.42294539
   0.82239497  0.66274507  0.42817918
   0.07436840  0.91290902  0.42281655
   0.32386049  0.91649666  0.42976432
   0.58394292  0.91798447  0.42335542
   0.84176110  0.92394067  0.42754360
   0.17158746  0.08502422  0.50086517
   0.41062126  0.08294818  0.51109999
   0.65759689  0.07844857  0.50670551
   0.92501510  0.09715456  0.50979066
   0.18286976  0.33972769  0.49338133
   0.42770516  0.34493034  0.50161365
   0.66443423  0.32417273  0.48717838
   0.91151324  0.33210600  0.49145982
   0.16259534  0.58242197  0.49928064
   0.41904086  0.58732195  0.49464206
   0.66281649  0.58972248  0.51252541
   0.91911994  0.57493517  0.49339706
   0.14743290  0.81823058  0.49868695
   0.41266500  0.81905867  0.49450958
   0.66804980  0.83591891  0.50101271
   0.91947437  0.83498960  0.50642119
Direct configuration=    68
   0.10757911  0.18912752  0.57852011
   0.33558659  0.17827046  0.58345255
   0.58866869  0.17628591  0.57989711
   0.83097112  0.17964936  0.58620868